<?xml version="1.0" encoding="utf-8"?>
<VTKFile byte_order="LittleEndian" compressor="vtkZLibDataCompressor" type="PolyData"
         version="0.1">
   <PolyData>
      <Piece NumberOfLines="0" NumberOfPoints="456" NumberOfPolys="908" NumberOfStrips="0"
             NumberOfVerts="0">
         <PointData Normals="Normals">
            <DataArray Name="Normals" NumberOfComponents="3" format="ascii" type="Float32">
-0.261491 0.594688 0.760242
0.080536 0.341305 0.936496
0.001802 0.770265 0.637722
-0.021499 0.850627 0.525330
-0.363485 0.290920 0.885011
-0.345770 0.791739 0.503580
-0.589916 0.520509 0.617308
0.294673 0.734484 0.611311
-0.281156 0.020009 0.959454
-0.049834 -0.126800 0.990676
0.294208 0.012871 0.955655
0.503436 0.221009 0.835288
0.485169 0.482857 0.729013
0.345921 0.819241 0.457365
-0.060030 0.949096 0.309212
0.286543 0.909996 0.299666
-0.626172 0.086950 0.774822
-0.390880 0.848657 0.356363
-0.641616 0.662844 0.385962
-0.807183 0.285337 0.516758
0.661767 0.557970 0.500733
-0.393325 -0.236702 0.888407
-0.019136 -0.320673 0.946997
0.384727 -0.209864 0.898856
0.600386 -0.073036 0.796368
0.740571 0.202020 0.640892
0.603183 0.752306 0.264964
-0.178313 0.981457 0.070327
0.129993 0.990705 0.040078
0.407588 0.913118 0.009411
-0.692318 -0.167745 0.701824
-0.480568 0.867476 0.128603
-0.752529 0.622662 0.214456
-0.917293 0.266887 0.295541
-0.877500 -0.126968 0.462464
0.843082 0.448514 0.296730
-0.374273 -0.430478 0.821345
0.018275 -0.517214 0.855661
0.451235 -0.446506 0.772670
0.741746 -0.213542 0.635777
0.881678 0.085763 0.463992
0.686181 0.726973 -0.025805
-0.194235 0.959109 -0.205868
-0.493977 0.854538 -0.160471
0.093216 0.965056 -0.244904
0.401454 0.864656 -0.302002
-0.634975 -0.473762 0.610210
-0.782310 0.619270 -0.067043
-0.969261 0.243692 0.033870
-0.961837 -0.196754 0.190150
-0.724241 -0.498459 0.476459
0.983050 0.084345 0.162783
0.897923 0.438573 -0.037247
-0.275622 -0.644378 0.713308
0.179437 -0.686019 0.705110
0.587405 -0.562527 0.581824
0.862532 -0.269802 0.428071
0.700688 0.623031 -0.347662
-0.497417 0.792744 -0.352326
-0.187639 0.881658 -0.432979
-0.804969 0.552242 -0.216918
0.124675 0.847234 -0.516382
0.422327 0.684092 -0.594692
-0.341981 -0.745995 0.571437
-0.976730 0.213611 -0.019218
-0.968529 -0.219517 0.117318
-0.739264 -0.618277 0.266876
-0.327919 -0.831465 0.448482
0.992782 -0.104265 -0.059262
0.921349 0.265987 -0.283490
0.156828 -0.773496 0.614092
0.566156 -0.711792 0.415715
0.864394 -0.466003 0.188852
0.658318 0.411783 -0.630121
-0.327510 0.722976 -0.608312
-0.648468 0.568321 -0.506460
-0.064896 0.716154 -0.694919
-0.857704 0.289576 -0.424841
0.224291 0.584408 -0.779847
0.429830 0.345194 -0.834318
0.101313 -0.868247 0.485678
-0.982313 0.013515 -0.186759
-0.858319 -0.502964 -0.101563
-0.529784 -0.848132 -0.000860
-0.287800 -0.952777 0.096886
0.911563 -0.270542 -0.309613
0.855486 0.077182 -0.512041
0.621683 -0.703553 0.344272
0.823470 -0.566855 0.023919
0.597854 0.009791 -0.801545
-0.330886 0.300884 -0.894418
-0.574177 0.356622 -0.736981
-0.756459 0.131916 -0.640599
-0.179531 0.242025 -0.953516
-0.880762 -0.226682 -0.415780
0.145543 0.213665 -0.966004
0.434603 -0.012704 -0.900533
-0.147174 -0.982971 0.110037
0.135287 -0.989377 0.053198
-0.723015 -0.690752 -0.010505
-0.374884 -0.911240 0.170597
-0.192345 -0.976353 0.098681
0.706708 -0.609876 -0.358630
0.725456 -0.309117 -0.614947
0.461124 -0.885561 -0.056096
0.578957 -0.346069 -0.738272
-0.663087 0.202080 -0.720749
-0.421341 0.361998 -0.831522
-0.947664 -0.069673 -0.311575
-0.091893 0.464532 -0.880776
-0.896955 -0.401038 0.186122
0.490090 0.209878 -0.846028
0.057652 -0.997899 0.029576
0.277703 -0.944416 -0.175954
-0.430022 -0.655687 0.620609
0.149734 -0.840468 0.520761
0.487159 -0.738418 -0.466278
0.817550 -0.189365 -0.543831
-0.720678 0.643725 -0.257376
-0.969378 0.234888 -0.071655
-0.043201 0.926581 -0.373606
-0.961265 -0.056251 0.269825
0.572210 0.719875 -0.392881
-0.700259 -0.195003 0.686739
0.961667 0.193115 -0.194685
0.654379 -0.743833 0.136018
0.805859 -0.513081 -0.295533
0.000231 -0.451309 0.892368
0.628216 -0.481259 0.611338
0.974209 -0.193007 -0.116898
-0.145851 0.987155 0.065211
-0.728869 0.673207 0.124668
-0.951319 0.295108 0.088898
-0.961381 0.179371 0.208742
0.519013 0.854664 -0.013260
-0.835227 0.069999 0.545432
0.870007 0.487822 -0.071541
-0.404560 -0.090469 0.910025
0.975375 -0.121857 -0.183832
0.949493 -0.305467 0.071780
0.439865 -0.374278 0.816354
0.874965 -0.264979 0.405243
0.982112 -0.169571 -0.081867
0.945732 -0.284516 -0.156977
-0.060893 0.949572 0.307580
0.537617 0.841090 0.059459
-0.380183 0.515798 0.767732
-0.730638 0.302884 0.611906
-0.632632 0.548764 0.546475
-0.776521 0.314961 0.545724
0.806706 0.528515 -0.264381
-0.763865 0.243333 0.597746
0.912706 -0.033668 -0.407228
-0.255549 0.193753 0.947182
0.946079 -0.197739 -0.256581
0.921488 -0.250648 -0.296708
0.547978 -0.281675 0.787641
0.860115 -0.175777 0.478858
0.990518 -0.073659 -0.115971
0.164688 0.905633 0.390778
0.432818 0.876742 -0.209741
0.756380 0.345204 -0.555629
0.428279 0.337594 0.838217
0.196508 -0.127384 0.972193
0.142483 0.327131 0.934175
-0.264765 0.414281 0.870787
-0.647359 0.318294 0.692542
0.855553 -0.054539 -0.514835
-0.539535 0.551969 0.635792
-0.467636 0.645749 0.603593
0.946419 -0.090577 -0.309978
0.894906 -0.176264 -0.409970
0.196620 0.296361 0.934618
0.913786 -0.171753 -0.368098
0.933599 -0.126200 -0.335361
0.613672 -0.244079 0.750888
0.521684 -0.163010 0.837421
0.926475 -0.009818 0.376229
0.237521 0.955442 -0.175256
0.418938 0.358342 -0.834315
0.664550 0.023498 -0.746874
0.137739 0.899362 0.414942
0.072919 0.129094 0.988948
-0.194807 0.103127 0.975405
-0.550872 0.087722 0.829967
-0.719332 0.067204 0.691408
-0.836378 0.378026 0.396949
0.875704 -0.240341 -0.418783
0.835206 -0.096955 -0.541323
-0.621842 0.558521 0.548969
-0.222881 0.249142 0.942471
0.982376 0.135850 -0.128386
0.911286 0.040918 -0.409737
0.860480 -0.099890 -0.499596
0.627229 -0.204259 0.751573
0.985605 -0.003056 0.169039
0.543883 -0.314258 0.778096
0.345102 -0.140170 0.928039
0.557485 -0.000953 0.830186
-0.016684 0.672416 -0.739985
-0.346658 0.904563 -0.248179
0.250623 0.241522 -0.937473
0.582226 0.190640 -0.790361
-0.794510 0.576462 0.190905
-0.878558 0.016084 0.477366
-0.938318 -0.037333 0.343752
-0.929345 -0.219192 0.297106
-0.961480 -0.230717 0.149418
-0.997214 0.021301 0.071484
0.640973 -0.349335 -0.683461
0.741145 -0.158922 -0.652264
-0.689605 -0.208449 0.693537
0.296046 -0.488756 0.820655
0.980419 0.168221 -0.102373
0.894099 0.157254 -0.419354
0.728210 -0.018430 -0.685106
0.552984 -0.436744 0.709551
0.862087 0.069851 0.501923
0.202459 -0.264249 0.942965
0.412245 -0.058501 0.909193
-0.082868 0.428138 -0.899906
-0.522019 0.567756 -0.636514
-0.871786 0.364987 -0.326761
0.251348 0.206846 -0.945536
-0.990566 0.077776 -0.112823
-0.966066 -0.076525 -0.246699
-0.913221 -0.267192 -0.307630
-0.927941 -0.355117 -0.113215
-0.932024 -0.354171 0.076771
-0.933521 -0.313732 -0.173524
-0.900257 -0.433552 0.039627
0.259064 -0.403444 -0.877564
0.337104 -0.336443 -0.879299
-0.330357 -0.773500 0.540890
0.121825 -0.699179 0.704490
0.951214 0.176415 -0.253119
0.904180 0.142975 0.402512
0.780418 0.071036 -0.621210
0.596928 0.005425 -0.802276
0.223175 -0.129637 -0.966120
0.387810 -0.031418 0.921204
-0.144283 -0.309167 0.939999
-0.322818 0.186343 -0.927936
-0.677547 0.146675 -0.720706
-0.829877 0.053923 -0.555335
-0.164727 -0.298401 -0.940118
-0.817085 -0.207138 -0.538020
-0.869764 -0.437579 -0.228113
-0.749019 -0.307494 -0.586871
-0.679926 -0.330564 -0.654544
-0.907803 -0.417885 0.035583
-0.618373 -0.740612 0.262885
-0.216310 -0.386230 -0.896681
0.893157 0.168960 -0.416801
0.896556 0.210096 0.389932
0.361847 0.081016 0.928710
0.020722 -0.098689 -0.994903
0.561636 0.058371 -0.825322
-0.340820 -0.213472 -0.915572
-0.408990 -0.147235 0.900583
-0.672134 -0.354247 0.650189
-0.531189 -0.213584 -0.819890
-0.631357 -0.285644 -0.720969
-0.896757 -0.245071 0.368466
-0.822669 -0.253891 -0.508680
0.766772 0.149214 -0.624336
0.958777 0.206553 0.195145
0.107671 0.067321 0.991905
-0.102720 -0.084595 -0.991107
0.037034 -0.060121 -0.997504
-0.827573 -0.182006 0.531033
-0.866966 -0.260179 -0.425061
0.663038 0.081306 -0.744157
0.980104 0.190551 0.055562
0.200263 0.114725 0.973002
-0.813169 -0.112362 0.571079
-0.165647 -0.149629 -0.974768
-0.917077 -0.251846 -0.309100
0.651453 0.008028 -0.758647
0.985762 0.132194 0.103915
0.230590 0.099625 0.967938
-0.831552 -0.070904 0.550902
-0.947629 -0.181463 -0.262811
-0.293201 -0.156677 -0.943125
0.674489 -0.015846 -0.738115
0.960117 0.122492 0.251338
0.103919 0.126513 0.986507
-0.858622 -0.011463 0.512481
-0.943966 -0.126919 -0.304663
-0.323975 -0.142214 -0.935316
0.694622 -0.041640 -0.718168
0.964716 0.094431 0.245777
0.133284 0.126939 0.982915
-0.847722 0.019813 0.530071
-0.930009 -0.088763 -0.356659
-0.273328 -0.143887 -0.951098
0.568713 -0.092715 -0.817294
0.989318 0.037496 0.140871
0.203006 0.148306 0.967881
-0.786299 0.078151 0.612884
-0.952218 -0.018988 -0.304829
-0.307225 -0.101487 -0.946210
0.029685 -0.087777 -0.995698
0.813884 -0.065576 -0.577315
0.970754 0.016702 0.239496
0.323498 0.148454 0.934511
-0.620309 0.120937 0.774978
-0.987900 0.047387 0.147672
-0.693128 -0.033588 -0.720032
-0.079809 -0.053645 -0.995366
0.730497 -0.080354 -0.678172
0.991238 -0.011776 0.131564
0.440450 0.163378 0.882786
-0.638088 0.191800 0.745692
-0.957516 0.088180 0.274568
-0.826526 0.046376 -0.560984
-0.105123 0.088624 -0.990502
0.668166 0.003549 -0.744004
0.984896 -0.031217 0.170307
0.655447 0.165326 0.736924
-0.526182 0.384298 0.758583
-0.962664 0.168434 0.211916
-0.940786 0.193792 -0.278150
-0.603696 0.536008 -0.590124
0.197926 0.241797 -0.949926
0.874792 0.244276 -0.418412
0.965569 0.140500 0.218945
0.800542 0.161667 0.577059
-0.029579 0.540891 0.840572
-0.906211 0.367711 0.208734
-0.926382 0.355536 0.124140
0.128323 0.407512 -0.904139
-0.432913 0.790988 -0.432347
-0.632234 0.738795 0.233372
0.412952 0.199877 -0.888549
0.819577 0.179284 -0.544197
0.980842 0.104924 0.164133
0.979576 0.142384 0.141977
0.822034 0.302923 0.482180
0.142688 0.695410 0.704305
0.720475 0.424904 0.548063
-0.852438 0.514110 0.095083
-0.798028 0.599380 0.062415
-0.763295 0.632872 0.129823
-0.393313 0.684931 -0.613331
0.042985 0.344261 -0.937890
0.319129 0.040561 -0.946843
-0.517511 0.807998 0.281642
-0.641808 0.600348 0.477143
0.417315 -0.050677 -0.907348
0.909884 -0.132893 -0.393002
0.919299 -0.317031 0.233198
0.955967 -0.275303 -0.101667
0.996729 0.066583 0.045813
0.824255 0.191117 0.532990
0.734795 0.230154 0.638048
0.704022 0.016597 0.709985
0.363191 0.150699 0.919447
-0.255564 0.696544 0.670458
-0.608865 0.776567 0.161949
-0.586503 0.798479 -0.135814
-0.874673 0.483055 0.040062
-0.361709 0.129398 -0.923267
-0.680934 0.522324 -0.513329
-0.779029 0.626735 -0.017786
-0.058361 -0.212455 -0.975427
0.229220 -0.276080 -0.933402
-0.561192 0.200691 0.802986
-0.715720 0.437285 0.544543
-0.955854 -0.238729 0.171322
0.267904 -0.217028 -0.938683
0.405175 -0.183231 -0.895689
0.824168 -0.528380 -0.203867
0.736000 -0.619969 0.271924
0.732861 -0.656691 -0.177967
0.748786 -0.379931 -0.543113
0.963385 -0.202814 0.175372
0.784645 -0.022985 0.619519
0.763106 0.031070 0.645527
0.610860 -0.202051 0.765523
0.256043 -0.121217 0.959035
-0.274930 0.194311 0.941624
-0.464580 0.744362 0.479677
-0.257614 0.962470 0.085358
-0.304962 0.869490 -0.388569
-0.637838 0.389982 -0.664137
-0.674651 0.042659 -0.736903
-0.309275 -0.139096 -0.940745
-0.974788 0.213043 -0.066334
-0.917624 0.039633 0.395469
-0.086289 -0.157910 -0.983676
0.149837 -0.219660 -0.964001
-0.514602 -0.249746 0.820251
-0.541898 -0.151019 0.826764
-0.911206 -0.401939 -0.090271
-0.563968 -0.074166 -0.822459
0.236271 -0.242893 -0.940840
0.429267 -0.672291 -0.603120
0.488615 -0.860537 0.143988
0.364479 -0.906345 0.213761
0.315225 -0.835102 -0.450819
0.667571 -0.696629 -0.262787
0.748279 -0.099234 0.655921
0.682002 -0.136847 0.718433
0.525115 -0.270636 0.806852
0.242453 -0.255318 0.935964
-0.180093 -0.022591 0.983390
-0.695472 0.160330 0.700437
-0.634308 0.762058 -0.130080
-0.505313 0.342637 -0.791997
-0.847730 -0.319270 -0.423580
-0.557615 -0.405069 -0.724558
-0.862147 -0.442858 0.246129
-0.637459 -0.598751 0.484916
-0.133630 -0.652197 -0.746178
0.171069 -0.674443 -0.718235
-0.361615 -0.535886 0.762929
-0.486903 -0.234281 -0.841450
-0.445025 -0.492660 -0.747822
-0.569909 -0.775635 -0.271282
-0.388133 -0.792595 0.470262
-0.629390 -0.236008 -0.740384
0.165249 -0.971204 -0.171626
0.170678 -0.967746 0.185303
-0.042601 -0.972351 -0.229604
-0.069554 -0.922806 0.378933
0.275390 -0.890944 -0.361080
0.071385 -0.838464 -0.540262
0.623353 -0.657996 0.422459
0.560971 -0.126073 0.818179
0.432441 -0.282113 0.856392
0.238002 -0.273281 0.932026
-0.131094 -0.181175 0.974674
-0.769722 -0.385874 0.508556
-0.981272 0.074660 -0.177568
-0.605701 -0.767033 0.211628
-0.426410 -0.904520 0.004301
-0.418906 -0.783823 0.458409
-0.092421 -0.994825 -0.042214
-0.164714 -0.827014 0.537510
-0.553066 -0.561434 -0.615556
-0.373460 -0.687907 -0.622344
-0.284494 -0.697075 -0.658141
-0.860731 -0.470662 -0.193955
-0.051092 -0.975455 0.214192
0.148059 -0.985985 -0.076890
-0.114000 -0.863752 -0.490853
0.409762 -0.459286 0.788132
0.031087 -0.471463 0.881338
-0.519429 -0.630680 0.576572
-0.710903 -0.702470 0.033951
-0.249898 -0.920025 0.301837
-0.519729 -0.807177 -0.279903
-0.217718 -0.969229 -0.114864
-0.024340 -0.900412 0.434357
-0.382915 -0.901852 0.200099
</DataArray>
         </PointData>
         <Points>
            <DataArray NumberOfComponents="3" format="ascii" type="Float32">	-0.008287 0.013096 0.017562
0.002328 0.007524 0.020396
-0.002416 0.016102 0.015962
-0.001871 0.018761 0.012560
-0.011677 0.006080 0.019334
-0.008093 0.016345 0.013867
-0.014041 0.010175 0.015671
0.005081 0.016010 0.015574
-0.008704 -0.002344 0.021887
0.000047 -0.006743 0.022483
0.008465 -0.001046 0.021984
0.012884 0.004058 0.017885
0.011218 0.012337 0.015443
0.010167 0.015899 0.012201
-0.002249 0.021241 0.006722
0.006987 0.019666 0.007183
-0.015356 0.001502 0.018012
-0.009373 0.019087 0.008129
-0.015480 0.013806 0.010056
-0.018757 0.005546 0.013058
0.016532 0.010371 0.011697
-0.010436 -0.005662 0.020236
-0.000132 -0.009710 0.021494
0.008750 -0.006902 0.021083
0.014504 -0.003210 0.018004
0.017356 0.001864 0.015188
0.014358 0.016046 0.006385
-0.003094 0.022327 0.001020
0.002988 0.022213 -0.000147
0.009554 0.020123 -0.000676
-0.016530 -0.004604 0.016478
-0.010059 0.020212 0.002401
-0.016692 0.015434 0.004236
-0.021341 0.006536 0.007334
-0.020712 -0.002400 0.011223
0.019783 0.009714 0.005534
-0.009474 -0.010747 0.018939
0.000807 -0.012582 0.020050
0.009886 -0.010679 0.018790
0.017240 -0.005961 0.014586
0.021734 0.001350 0.008377
0.016781 0.015279 -0.001180
-0.004865 0.021726 -0.004658
-0.011513 0.019597 -0.004015
0.001604 0.021817 -0.006193
0.007894 0.020034 -0.007582
-0.015411 -0.010282 0.014721
-0.017646 0.014848 -0.002156
-0.022356 0.006524 0.001504
-0.022455 -0.003866 0.005610
-0.017315 -0.011914 0.010506
0.023197 -0.000409 0.005175
0.021298 0.009243 -0.000225
-0.007465 -0.014354 0.017030
0.002295 -0.016526 0.016898
0.013035 -0.012987 0.014570
0.019418 -0.008739 0.010314
0.016062 0.013650 -0.009076
-0.013430 0.016826 -0.008631
-0.005955 0.019557 -0.010495
-0.019901 0.011167 -0.004953
0.001991 0.018977 -0.012714
0.009326 0.015245 -0.014680
-0.008937 -0.016168 0.014436
-0.023302 0.001246 -0.001562
-0.021891 -0.007917 0.003018
-0.015673 -0.014590 0.010896
-0.006180 -0.018041 0.013627
0.023130 -0.004273 -0.001112
0.021053 0.005839 -0.007536
0.002104 -0.018391 0.014852
0.013385 -0.015827 0.010840
0.020957 -0.010210 0.005225
0.014692 0.009807 -0.015402
-0.006441 0.016930 -0.014633
-0.013325 0.014822 -0.012461
-0.000488 0.015714 -0.017581
-0.019450 0.008947 -0.009449
0.004303 0.013672 -0.018779
0.008676 0.008496 -0.019984
0.005607 -0.019403 0.012122
-0.023257 0.000727 -0.005937
-0.022633 -0.006928 -0.001402
-0.016391 -0.014143 0.004577
-0.007762 -0.017704 0.008698
0.020966 -0.004718 -0.009576
0.019172 0.002013 -0.013668
0.014713 -0.017394 0.004064
0.019960 -0.012440 -0.002425
0.014049 -0.000162 -0.019066
-0.006869 0.012359 -0.018449
-0.014154 0.010861 -0.015387
-0.018737 0.004079 -0.012042
-0.000678 0.010171 -0.021416
-0.020398 -0.003616 -0.009975
0.005617 0.005904 -0.022007
0.008462 -0.001533 -0.022096
0.000597 -0.019861 0.008521
0.006658 -0.020533 0.006381
-0.017852 -0.012299 -0.002540
-0.010691 -0.016628 0.001743
-0.003273 -0.019166 0.002780
0.017201 -0.015440 -0.005992
0.016954 -0.007170 -0.014801
0.013567 -0.018694 0.000375
0.011614 -0.009059 -0.018166
-0.013297 -0.001227 -0.016451
-0.006558 0.003933 -0.018056
-0.017290 -0.009359 -0.013335
-0.001006 0.001644 -0.020968
-0.015142 -0.016716 -0.007533
0.005135 -0.001838 -0.023427
0.003363 -0.019539 0.000841
0.009397 -0.018777 -0.004443
-0.009454 -0.020660 -0.004337
-0.000300 -0.021741 -0.005652
0.012208 -0.015460 -0.012477
0.008145 -0.009093 -0.020982
-0.012415 -0.007152 -0.025312
-0.016870 -0.015052 -0.021222
-0.005050 -0.002863 -0.027621
-0.015816 -0.021115 -0.015118
0.001904 -0.006128 -0.030141
-0.013617 -0.027183 -0.011873
0.004938 -0.013776 -0.029762
0.006936 -0.019380 -0.010786
0.008750 -0.014952 -0.016185
-0.008515 -0.030031 -0.010272
-0.001507 -0.030713 -0.013314
0.004641 -0.021054 -0.027332
-0.007199 -0.003543 -0.034057
-0.013092 -0.008633 -0.030170
-0.017042 -0.016896 -0.025743
-0.017974 -0.024928 -0.021774
-0.001279 -0.005623 -0.037356
-0.016233 -0.033119 -0.014858
0.003637 -0.009991 -0.038332
-0.013613 -0.035587 -0.012208
0.006003 -0.016121 -0.038405
0.003483 -0.027820 -0.022315
-0.003805 -0.038868 -0.016042
0.001958 -0.037748 -0.022378
0.002337 -0.031751 -0.031036
0.003518 -0.022143 -0.035825
-0.008080 -0.002190 -0.040558
-0.002532 -0.003561 -0.042859
-0.015756 -0.006763 -0.037321
-0.017604 -0.014818 -0.037111
-0.019480 -0.023404 -0.031664
-0.020842 -0.032906 -0.023338
0.001798 -0.007128 -0.045092
-0.018994 -0.039986 -0.017886
0.002942 -0.012179 -0.046063
-0.016968 -0.044401 -0.013077
0.000424 -0.028103 -0.039248
0.001236 -0.019025 -0.044085
-0.008065 -0.046011 -0.016814
0.000844 -0.045191 -0.023535
0.001125 -0.037253 -0.032515
-0.011528 -0.000239 -0.045357
-0.005684 -0.000459 -0.049705
-0.001829 -0.006681 -0.051406
-0.023514 -0.001457 -0.034750
-0.024983 -0.010645 -0.038858
-0.025904 -0.020063 -0.037525
-0.027287 -0.027191 -0.031577
-0.025613 -0.034970 -0.027866
-0.001293 -0.016152 -0.051073
-0.023062 -0.043014 -0.021299
-0.021631 -0.047440 -0.016616
-0.002148 -0.032802 -0.044597
-0.002691 -0.025587 -0.048211
-0.019662 -0.050364 -0.010384
0.001252 -0.047247 -0.033470
-0.000616 -0.039878 -0.038846
-0.014466 -0.052240 -0.015755
-0.003590 -0.053366 -0.021341
0.001957 -0.051049 -0.026994
-0.011701 0.000770 -0.049940
-0.004879 -0.008461 -0.054562
-0.003738 -0.018584 -0.053550
-0.023699 0.001757 -0.036812
-0.030554 -0.002041 -0.031626
-0.032472 -0.016217 -0.034986
-0.032669 -0.027037 -0.032444
-0.030943 -0.037372 -0.030848
-0.028236 -0.044997 -0.023855
-0.004832 -0.036127 -0.049281
-0.004162 -0.028422 -0.053656
-0.028321 -0.050136 -0.014034
-0.025171 -0.053408 -0.008780
0.001987 -0.053611 -0.032455
-0.000330 -0.049575 -0.039304
-0.002835 -0.042969 -0.045108
-0.019467 -0.055617 -0.009863
0.001950 -0.056394 -0.026244
-0.016277 -0.056821 -0.016142
-0.009192 -0.057882 -0.020189
-0.003358 -0.058359 -0.021966
-0.015289 -0.001087 -0.053506
-0.026482 0.001401 -0.042998
-0.010857 -0.010247 -0.057301
-0.009046 -0.019483 -0.058724
-0.034142 -0.000882 -0.035480
-0.036136 -0.017121 -0.036899
-0.037077 -0.026527 -0.037218
-0.035724 -0.035947 -0.037257
-0.028845 -0.046986 -0.031532
-0.030262 -0.053541 -0.017238
-0.008924 -0.037542 -0.054135
-0.007552 -0.029625 -0.058740
-0.027092 -0.056736 -0.010506
-0.020693 -0.059362 -0.010948
0.002752 -0.059691 -0.034365
-0.000955 -0.054247 -0.043237
-0.006523 -0.048324 -0.049427
-0.016106 -0.060947 -0.018616
0.003523 -0.062498 -0.028235
-0.008909 -0.063554 -0.020983
-0.001054 -0.064150 -0.022926
-0.018344 -0.005575 -0.055404
-0.031354 -0.003334 -0.048436
-0.035577 -0.006989 -0.041882
-0.013902 -0.017601 -0.062120
-0.036540 -0.015075 -0.043306
-0.036212 -0.025924 -0.045305
-0.034006 -0.034590 -0.045221
-0.029685 -0.051438 -0.039757
-0.024323 -0.061772 -0.036020
-0.025686 -0.058680 -0.028482
-0.029398 -0.060342 -0.018299
-0.013671 -0.038996 -0.055814
-0.011237 -0.028889 -0.062189
-0.025582 -0.061946 -0.012383
-0.017091 -0.065896 -0.021027
0.003382 -0.066974 -0.038129
0.004214 -0.068968 -0.028181
-0.002062 -0.065278 -0.045730
-0.006222 -0.064155 -0.050233
-0.011589 -0.047421 -0.053499
-0.002310 -0.070081 -0.022703
-0.010677 -0.068570 -0.021683
-0.020436 -0.018383 -0.060893
-0.029266 -0.016823 -0.056546
-0.033416 -0.018883 -0.051331
-0.018368 -0.031773 -0.060602
-0.032096 -0.028245 -0.052804
-0.024577 -0.063018 -0.043562
-0.026732 -0.054893 -0.046545
-0.029377 -0.041377 -0.049733
-0.020250 -0.073095 -0.037487
-0.022684 -0.065904 -0.025553
-0.020066 -0.042445 -0.054246
0.007683 -0.083159 -0.036154
0.007612 -0.083148 -0.028727
0.001512 -0.084334 -0.023667
-0.012299 -0.065110 -0.051919
-0.000443 -0.083114 -0.046226
-0.018280 -0.052636 -0.051990
-0.007436 -0.084999 -0.024455
-0.010576 -0.076248 -0.024432
-0.025666 -0.030886 -0.058032
-0.019935 -0.064181 -0.048749
-0.013679 -0.088212 -0.032082
-0.014771 -0.086049 -0.046946
0.010236 -0.114484 -0.042777
0.013397 -0.107051 -0.031003
0.007146 -0.112733 -0.021610
-0.008599 -0.085198 -0.051056
-0.002134 -0.115272 -0.049090
-0.006029 -0.114543 -0.028621
-0.008066 -0.116784 -0.045627
0.016147 -0.145499 -0.042650
0.021444 -0.143041 -0.031426
0.013274 -0.143245 -0.018456
0.002083 -0.146371 -0.025413
0.006583 -0.147593 -0.045372
-0.000192 -0.148855 -0.039632
0.022235 -0.178130 -0.040130
0.026642 -0.175241 -0.029656
0.018624 -0.174878 -0.016435
0.006923 -0.174944 -0.022958
0.005606 -0.177346 -0.034811
0.011726 -0.176706 -0.042319
0.025213 -0.206110 -0.037287
0.029293 -0.204134 -0.023232
0.018623 -0.204329 -0.014372
0.010230 -0.206601 -0.020191
0.009398 -0.207899 -0.031855
0.015368 -0.207757 -0.038978
0.028759 -0.241493 -0.032758
0.032013 -0.239668 -0.020008
0.022443 -0.238701 -0.010508
0.012701 -0.239181 -0.015620
0.011625 -0.242254 -0.027447
0.018996 -0.242383 -0.034979
0.031105 -0.274394 -0.027346
0.033865 -0.272749 -0.016514
0.024193 -0.270596 -0.006412
0.013240 -0.272318 -0.011876
0.012806 -0.274920 -0.025071
0.020548 -0.276234 -0.030553
0.020853 -0.306927 -0.027143
0.028470 -0.306582 -0.025444
0.033359 -0.304923 -0.011126
0.026691 -0.303563 -0.001938
0.017180 -0.303441 -0.004412
0.011076 -0.304750 -0.013009
0.013049 -0.306793 -0.023752
0.018939 -0.340063 -0.024530
0.029768 -0.340396 -0.022062
0.033007 -0.341078 -0.007968
0.025012 -0.338338 0.004001
0.015430 -0.336956 0.001425
0.010568 -0.337704 -0.008642
0.010000 -0.339098 -0.020331
0.016258 -0.366965 -0.024333
0.030488 -0.369810 -0.018653
0.029963 -0.368121 -0.002334
0.025336 -0.365085 0.008183
0.014542 -0.362314 0.010047
0.008457 -0.367493 -0.006242
0.006998 -0.366599 -0.020562
0.002655 -0.379981 -0.023009
0.015523 -0.381394 -0.025617
0.029925 -0.386391 -0.020785
0.029547 -0.384766 0.000447
0.022030 -0.377881 0.013768
0.012115 -0.375266 0.018196
0.008116 -0.377884 0.009247
0.006616 -0.380674 -0.003266
0.011980 -0.394159 -0.031420
-0.002897 -0.386977 -0.028552
-0.000454 -0.386982 -0.014488
0.022959 -0.397253 -0.028606
0.035306 -0.397072 -0.021105
0.032968 -0.395633 -0.008448
0.031145 -0.395746 0.001877
0.027072 -0.390989 0.013137
0.006791 -0.387902 0.033406
0.020784 -0.387953 0.020689
0.011160 -0.382117 0.023459
0.004383 -0.386023 0.013469
0.003587 -0.387849 -0.000222
-0.009434 -0.391673 -0.029127
0.002353 -0.398568 -0.036067
0.010398 -0.402182 -0.034107
-0.009795 -0.390173 -0.014384
-0.006731 -0.392187 -0.009106
0.021525 -0.404413 -0.029318
0.035446 -0.405787 -0.021325
0.032663 -0.405177 -0.008789
0.030062 -0.406264 0.000232
0.032818 -0.405157 0.007829
0.025956 -0.399818 0.018001
0.019136 -0.394624 0.027519
0.017446 -0.402156 0.030315
0.011730 -0.397800 0.036877
0.002937 -0.393959 0.037526
-0.000852 -0.391272 0.025995
-0.001801 -0.392515 0.016571
-0.002039 -0.394480 0.001938
-0.009767 -0.402873 -0.035207
-0.016769 -0.397147 -0.027677
-0.017997 -0.395692 -0.022044
-0.002143 -0.406302 -0.037033
0.007871 -0.408459 -0.034121
-0.011068 -0.400730 -0.006348
-0.016787 -0.397566 -0.012051
-0.002281 -0.400084 0.001555
0.017481 -0.411851 -0.029677
0.024589 -0.413262 -0.027714
0.031195 -0.414066 -0.022521
0.029754 -0.413497 -0.010670
0.025460 -0.412837 -0.000033
0.029709 -0.413635 0.006108
0.033345 -0.414184 0.010227
0.029794 -0.410377 0.016316
0.024650 -0.407569 0.021375
0.015140 -0.409293 0.030919
0.006830 -0.402541 0.038298
-0.007303 -0.397547 0.036054
-0.015521 -0.394175 0.027941
-0.003647 -0.393526 0.028425
-0.010118 -0.392991 0.018940
-0.008083 -0.398395 0.013016
-0.021165 -0.406397 -0.029793
-0.012553 -0.410420 -0.030597
-0.022408 -0.404588 -0.023297
-0.020512 -0.405620 -0.013998
-0.006449 -0.413673 -0.032330
0.003243 -0.416680 -0.031912
-0.002882 -0.408422 -0.006231
-0.016366 -0.408881 -0.008787
0.004058 -0.410535 0.001843
-0.001044 -0.408861 0.009405
0.016771 -0.417675 -0.028481
0.023161 -0.421217 -0.025633
0.022884 -0.421138 -0.014379
0.019261 -0.417790 -0.004385
0.020794 -0.418748 0.004095
0.029071 -0.420928 0.011581
0.027465 -0.417050 0.018789
0.021598 -0.413145 0.022962
0.012713 -0.414202 0.031252
0.002472 -0.411800 0.036440
-0.007632 -0.409205 0.036730
-0.020658 -0.408592 0.033736
-0.017667 -0.395899 0.020933
-0.016816 -0.403420 0.013198
-0.021244 -0.413129 -0.028080
-0.015779 -0.417373 -0.031837
-0.021820 -0.410716 -0.019655
-0.014973 -0.415510 -0.012463
-0.007523 -0.422437 -0.032296
0.005837 -0.423079 -0.029917
-0.005442 -0.416331 -0.007583
-0.013221 -0.415616 0.014291
-0.004487 -0.422012 0.013927
0.007255 -0.416320 0.001125
0.007211 -0.417681 -0.005644
-0.018287 -0.409922 0.014403
0.013777 -0.423537 -0.025725
0.014433 -0.424549 -0.017703
0.013143 -0.418346 0.000209
0.012486 -0.421127 -0.009177
0.019347 -0.425500 0.012975
0.014155 -0.421520 0.005391
0.022154 -0.425019 0.022274
0.017173 -0.418753 0.025937
0.009566 -0.420713 0.029919
0.003233 -0.417783 0.034554
-0.007621 -0.415450 0.036092
-0.018097 -0.414535 0.033884
-0.022322 -0.403616 0.021101
-0.014324 -0.419420 -0.018578
-0.011563 -0.421864 -0.024560
-0.009423 -0.419038 -0.012840
-0.000728 -0.424582 -0.023307
0.001318 -0.420799 -0.010887
-0.014416 -0.420856 0.018401
-0.003730 -0.426432 0.016147
0.006343 -0.421611 0.007606
-0.020977 -0.415899 0.023124
0.006280 -0.424557 -0.017171
0.009081 -0.430285 0.021312
0.004537 -0.429129 0.015807
0.011900 -0.427962 0.028185
-0.004435 -0.425101 0.034302
-0.013769 -0.422733 0.031571
-0.015841 -0.422242 0.024399
-0.004460 -0.422900 -0.017036
-0.008972 -0.426934 0.021198
-0.001631 -0.429478 0.020925
0.001302 -0.428160 0.031677
-0.008172 -0.427189 0.027455
</DataArray>
         </Points>
         <Polys>
            <DataArray Name="connectivity" format="ascii" type="Int32">