<?xml version="1.0"?>
<VTKFile type="PolyData" version="0.1" byte_order="LittleEndian" compressor="vtkZLibDataCompressor">
	<PolyData>
		<Piece NumberOfPoints="456" NumberOfVerts="0" NumberOfLines="0" NumberOfStrips="0" NumberOfPolys="908">
		<PointData Normals="Normals">
		<DataArray type="Float32" Name="Normals" NumberOfComponents="3" format="ascii">
			-0.159565 0.769227 0.618731
			-0.158765 0.339365 0.927160
			-0.445439 0.594978 0.669019
			-0.153249 0.849914 0.504144
			0.129963 0.731801 0.669011
			0.219875 0.816506 0.533830
			-0.574705 0.291650 0.764627
			-0.511330 0.020110 0.859149
			-0.293523 -0.128079 0.947334
			0.046075 0.009660 0.998892
			0.277188 0.216774 0.936043
			0.283854 0.478885 0.830720
			-0.460440 0.792925 0.399080
			-0.725582 0.522950 0.447274
			-0.133977 0.948950 0.285559
			0.203087 0.907854 0.366820
			0.514380 0.553330 0.655164
			0.517838 0.748387 0.414441
			-0.800332 0.089363 0.592860
			-0.602148 -0.235791 0.762771
			-0.252508 -0.321988 0.912449
			0.149914 -0.213477 0.965377
			0.383048 -0.077761 0.920449
			0.556641 0.196705 0.807129
			-0.465896 0.850344 0.244654
			-0.716012 0.665947 0.209383
			-0.910312 0.289224 0.296112
			-0.185431 0.982363 0.024036
			0.120067 0.989866 0.075817
			0.395676 0.910730 0.118370
			0.741507 0.443172 0.503752
			0.673281 0.723010 0.154754
			-0.845597 -0.164826 0.507738
			-0.566109 -0.429541 0.703573
			-0.193510 -0.518612 0.832824
			0.246107 -0.450298 0.858291
			0.560411 -0.218810 0.798788
			0.737277 0.079951 0.670843
			-0.492980 0.870040 0.001086
			-0.779140 0.626689 0.014242
			-0.960870 0.271757 0.053639
			-0.965712 -0.122609 0.228841
			-0.430544 0.857633 -0.281242
			-0.128526 0.960547 -0.246640
			0.159172 0.964886 -0.208947
			0.470875 0.862790 -0.184039
			0.911464 0.078440 0.403833
			0.879905 0.433464 0.194619
			0.769841 0.619514 -0.153452
			-0.767561 -0.470998 0.434753
			-0.443889 -0.643830 0.623254
			0.000229 -0.688124 0.725593
			0.425170 -0.566802 0.705667
			0.729480 -0.275454 0.626087
			-0.735144 0.623924 -0.265109
			-0.944787 0.249269 -0.212704
			-0.979955 -0.191422 -0.055190
			-0.821230 -0.494927 0.283952
			-0.384841 0.796145 -0.466958
			-0.719500 0.557281 -0.414436
			-0.063584 0.883379 -0.464325
			0.259364 0.847320 -0.463442
			0.565296 0.682565 -0.463190
			0.975895 -0.109928 0.188531
			0.964481 0.261126 -0.039873
			0.799646 0.408957 -0.439681
			-0.473877 -0.744877 0.469679
			0.000490 -0.775323 0.631565
			0.445092 -0.715697 0.538211
			0.789383 -0.471317 0.393364
			-0.939475 0.219278 -0.263257
			-0.968733 -0.214087 -0.125392
			-0.785174 -0.614363 0.077847
			-0.430563 -0.830276 0.353918
			-0.154706 0.725779 -0.670307
			-0.492551 0.572877 -0.655138
			-0.719315 0.295188 -0.628849
			0.120887 0.717589 -0.685896
			0.420765 0.584304 -0.693935
			0.630093 0.343994 -0.696169
			0.958418 -0.275352 -0.074944
			0.957116 0.072997 -0.280358
			0.779441 0.007563 -0.626430
			-0.022727 -0.869563 0.493299
			0.516728 -0.707669 0.481868
			0.789856 -0.571642 0.222156
			-0.903968 0.019490 -0.427156
			-0.809357 -0.497809 -0.311653
			-0.518143 -0.845054 -0.131953
			-0.307671 -0.951240 0.021925
			-0.364271 0.361126 -0.858426
			-0.088351 0.304211 -0.948498
			-0.569397 0.137306 -0.810515
			-0.751027 -0.220917 -0.622217
			0.071668 0.244516 -0.966993
			0.386781 0.214342 -0.896916
			0.645464 -0.013800 -0.763666
			0.769274 -0.613398 -0.178775
			0.852974 -0.312349 -0.418178
			0.740629 -0.348244 -0.574626
			-0.174454 -0.982265 0.068711
			0.113446 -0.990226 0.081132
			0.456410 -0.888146 0.053735
			-0.702251 -0.686539 -0.188435
			-0.409732 -0.909328 0.072408
			-0.215549 -0.975375 0.046726
			-0.461036 0.207058 -0.862887
			-0.195871 0.365731 -0.909877
			-0.842635 -0.063698 -0.534705
			-0.917445 -0.396135 -0.037039
			0.134752 0.466458 -0.874219
			0.686640 0.208394 -0.696490
			0.581560 -0.740534 -0.336746
			0.925003 -0.193260 -0.327138
			0.043629 -0.998263 0.039578
			0.306850 -0.945738 -0.106881
			-0.569413 -0.654160 0.497838
			0.016756 -0.842128 0.539018
			-0.631628 0.648301 -0.425149
			-0.921912 0.240605 -0.303623
			0.055921 0.927394 -0.369883
			-0.998172 -0.051127 0.032216
			-0.843362 -0.192038 0.501857
			0.655259 0.717155 -0.237327
			0.981164 0.187824 0.045167
			0.850728 -0.517302 -0.093068
			0.972906 -0.198466 0.118592
			0.598758 -0.747816 0.286810
			-0.211039 -0.452709 0.866325
			0.465435 -0.485831 0.739824
			-0.152333 0.987879 0.029843
			-0.733619 0.677232 -0.056209
			-0.943116 0.300473 -0.142298
			-0.982509 0.184618 -0.024325
			0.510658 0.851656 0.117941
			-0.938706 0.073970 0.336689
			-0.604300 -0.089582 0.791705
			0.863600 0.482874 0.145008
			0.990247 -0.127231 0.056770
			0.904375 -0.311033 0.292173
			0.973252 -0.175114 0.148710
			0.954400 -0.289728 0.071958
			0.239024 -0.378115 0.894369
			0.757023 -0.270705 0.594672
			-0.130649 0.949417 0.285548
			0.510402 0.837863 0.193584
			-0.555022 0.516790 0.651827
			-0.855484 0.306157 0.417631
			-0.741451 0.551585 0.382106
			-0.880436 0.318605 0.351174
			0.849734 0.524233 -0.055950
			-0.878978 0.246803 0.408026
			-0.462138 0.193758 0.865382
			0.984207 -0.038303 -0.172828
			0.978823 -0.202826 -0.027706
			0.964419 -0.255535 -0.067807
			0.776867 -0.309424 0.548393
			0.981372 -0.122006 0.148406
			0.354913 -0.286114 0.890042
			0.066445 0.904032 0.422269
			0.476019 0.874579 -0.092292
			0.871820 0.341668 -0.350988
			0.207362 0.333799 0.919554
			-0.047812 -0.130065 0.990352
			-0.083563 0.324838 0.942071
			-0.460238 0.414477 0.785105
			-0.788322 0.320957 0.524914
			0.954227 -0.058699 -0.293264
			-0.666828 0.554098 0.498312
			-0.587812 0.647491 0.485008
			-0.015164 0.293772 0.955755
			0.992049 -0.095578 -0.081872
			0.965493 -0.180815 -0.187426
			0.972176 -0.176477 -0.154044
			0.984856 -0.131078 -0.113476
			0.430475 -0.248747 0.867650
			0.430759 -0.157928 0.888541
			0.762941 0.083877 0.641004
			0.278848 0.954323 -0.107290
			0.612837 0.357215 -0.704861
			0.824532 0.020803 -0.565433
			0.033715 0.897918 0.438870
			-0.175192 0.127130 0.976292
			-0.424014 0.102726 0.899810
			-0.730460 0.089631 0.677049
			-0.858711 0.070310 0.507613
			-0.902407 0.382251 0.198860
			0.947366 -0.244765 -0.206371
			0.938402 -0.100969 -0.330464
			-0.725657 0.561258 0.398010
			-0.424571 0.248965 0.870492
			0.445375 -0.208986 0.870612
			0.987150 0.130388 0.092378
			0.979959 0.036310 -0.195862
			0.950845 -0.104096 -0.291647
			0.924382 -0.009014 0.381361
			0.358279 -0.318571 0.877580
			0.132967 -0.143625 0.980659
			0.362561 -0.005442 0.931945
			0.172069 0.673664 -0.718727
			-0.268549 0.906941 -0.324560
			0.473580 0.241539 -0.846983
			0.755602 0.188479 -0.627329
			-0.813983 0.580767 -0.011927
			-0.967597 0.020405 0.251673
			-0.993108 -0.032436 0.112621
			-0.973970 -0.214257 0.074005
			-0.971669 -0.225381 -0.071154
			-0.988195 0.026942 -0.150816
			0.779049 -0.351936 -0.518869
			0.872372 -0.162193 -0.461152
			-0.826084 -0.205564 0.524719
			0.107371 -0.491766 0.864082
			0.383378 -0.441075 0.811464
			0.980058 0.162720 0.114057
			0.965435 0.152756 -0.211186
			0.863016 -0.021571 -0.504716
			0.733520 0.064090 0.676639
			-0.007052 -0.266899 0.963699
			0.206460 -0.062286 0.976471
			0.144372 0.430032 -0.891196
			-0.344541 0.571768 -0.744562
			-0.762412 0.370556 -0.530487
			0.472552 0.206845 -0.856685
			-0.933358 0.083701 -0.349052
			-0.880854 -0.070555 -0.468100
			-0.818613 -0.261404 -0.511409
			-0.881417 -0.349557 -0.317672
			-0.874738 -0.308065 -0.374071
			-0.928373 -0.348906 -0.128016
			-0.889595 -0.428433 -0.158323
			0.451003 -0.403546 -0.796083
			0.532125 -0.336986 -0.776714
			-0.443789 -0.772422 0.454329
			-0.035805 -0.700985 0.712277
			0.984259 0.171309 -0.043440
			0.798626 0.137133 0.585996
			0.895960 0.067481 -0.438979
			0.433553 -0.129440 -0.891783
			0.755728 0.003220 -0.654877
			0.183416 -0.035105 0.982409
			-0.342798 -0.309779 0.886863
			-0.089490 0.189653 -0.977764
			-0.483088 0.151717 -0.862327
			-0.672077 0.059584 -0.738081
			0.057197 -0.295981 -0.953480
			-0.668950 -0.201557 -0.715459
			-0.802256 -0.432174 -0.411839
			-0.602811 -0.302216 -0.738433
			-0.514751 -0.325601 -0.793105
			-0.897172 -0.412672 -0.157432
			-0.664300 -0.737422 0.122123
			-0.009093 -0.383573 -0.923466
			0.960499 0.164425 -0.224512
			0.798758 0.204271 0.565913
			0.164940 0.077452 0.983258
			0.233513 -0.097243 -0.967479
			-0.130657 -0.210050 -0.968921
			0.719169 0.056416 -0.692541
			-0.584824 -0.146282 0.797861
			-0.794928 -0.351361 0.494606
			-0.326293 -0.209236 -0.921820
			-0.462772 -0.280837 -0.840817
			-0.954035 -0.240442 0.178902
			-0.703365 -0.248324 -0.666043
			0.871124 0.145747 -0.468936
			0.904665 0.200684 0.375907
			-0.080988 0.065146 0.994584
			0.101046 -0.082440 -0.991460
			0.222864 -0.058781 -0.973076
			-0.913500 -0.178038 0.365812
			-0.773886 -0.254496 -0.579942
			0.780683 0.078621 -0.619961
			0.956982 0.184783 0.223700
			0.030747 0.112054 0.993226
			-0.899063 -0.108531 0.424154
			0.001089 -0.147147 -0.989114
			-0.853105 -0.246037 -0.460086
			0.759575 0.005436 -0.650397
			0.958682 0.126313 0.254901
			0.079013 0.096770 0.992165
			-0.906978 -0.066945 0.415825
			-0.897227 -0.175559 -0.405171
			-0.145948 -0.153497 -0.977311
			0.769153 -0.018608 -0.638794
			0.916875 0.116524 0.381787
			-0.032496 0.124359 0.991705
			-0.920689 -0.007287 0.390229
			-0.894409 -0.120971 -0.430579
			-0.194372 -0.138864 -0.971049
			0.773856 -0.044537 -0.631794
			0.929363 0.088457 0.358413
			0.016184 0.124621 0.992072
			-0.904501 0.023892 0.425802
			-0.882393 -0.082814 -0.463168
			-0.161051 -0.140804 -0.976851
			0.646324 -0.094735 -0.757159
			0.970486 0.031544 0.239086
			0.104898 0.145611 0.983765
			-0.843303 0.081749 0.531184
			-0.917551 -0.012995 -0.397407
			-0.213556 -0.098234 -0.971979
			0.109661 -0.086393 -0.990208
			0.857611 -0.069389 -0.509595
			0.947934 0.010714 0.318286
			0.245887 0.145126 0.958372
			-0.681689 0.123320 0.721175
			-0.996409 0.052881 0.066131
			-0.632693 -0.028449 -0.773879
			-0.017833 -0.051620 -0.998507
			0.770772 -0.083522 -0.631613
			0.981136 -0.017733 0.192505
			0.384596 0.159442 0.909211
			-0.683509 0.194331 0.703598
			-0.972554 0.093294 0.213153
			-0.789281 0.052035 -0.611823
			-0.057593 0.090776 -0.994205
			0.701482 0.000842 -0.712686
			0.975683 -0.037185 0.216009
			0.619974 0.160356 0.768062
			-0.561203 0.386152 0.732079
			-0.970594 0.173686 0.166673
			-0.925360 0.199697 -0.322226
			-0.576452 0.540418 -0.612904
			0.236498 0.242130 -0.940979
			0.890851 0.239849 -0.385818
			0.957500 0.134555 0.255128
			0.776980 0.156127 0.609858
			-0.062349 0.539747 0.839515
			-0.911929 0.372638 0.171832
			-0.928526 0.360711 0.087907
			-0.412432 0.794153 -0.446341
			0.159697 0.408202 -0.898815
			-0.636028 0.742072 0.211652
			0.440939 0.198857 -0.875231
			0.836796 0.175349 -0.518677
			0.975821 0.098965 0.194883
			0.975467 0.136491 0.172726
			0.806963 0.297415 0.510251
			0.702958 0.419877 0.574068
			0.121481 0.693490 0.710151
			-0.852529 0.518892 0.062804
			-0.796345 0.603878 0.034143
			-0.763795 0.637085 0.103627
			-0.368522 0.688164 -0.624997
			-0.522282 0.810528 0.265075
			0.072843 0.345463 -0.935601
			0.345465 0.040160 -0.937572
			-0.653905 0.603285 0.456571
			0.440841 -0.051687 -0.896096
			0.918853 -0.137545 -0.369853
			0.911108 -0.322741 0.256361
			0.956633 -0.280670 -0.077948
			0.995571 0.060748 0.071750
			0.809601 0.185502 0.556898
			0.715415 0.224889 0.661518
			0.684225 0.011395 0.729182
			0.336263 0.147170 0.930198
			-0.273066 0.696980 0.663064
			-0.609537 0.779822 0.142626
			-0.577077 0.802091 -0.153731
			-0.872716 0.488057 0.012925
			-0.661887 0.527057 -0.533025
			-0.335565 0.132901 -0.932595
			-0.774474 0.631265 -0.041164
			-0.582748 0.202639 0.786982
			-0.729386 0.440556 0.523361
			-0.034750 -0.210649 -0.976944
			0.250131 -0.275940 -0.928058
			-0.961758 -0.233465 0.143232
			0.287479 -0.217120 -0.932853
			0.423198 -0.184157 -0.887124
			0.825212 -0.532809 -0.187456
			0.726479 -0.624641 0.286448
			0.732745 -0.660640 -0.163217
			0.757912 -0.383402 -0.527799
			0.958337 -0.208637 0.195094
			0.770061 -0.028527 0.637332
			0.747185 0.025582 0.664124
			0.591424 -0.206803 0.779390
			0.228936 -0.124214 0.965484
			-0.302214 0.194416 0.933204
			-0.475518 0.746288 0.465765
			-0.254716 0.963816 0.078598
			-0.287016 0.871868 -0.396824
			-0.615470 0.394715 -0.682200
			-0.655444 0.047702 -0.753736
			-0.971450 0.218788 -0.091746
			-0.288218 -0.135881 -0.947875
			-0.927291 0.044326 0.371708
			-0.535761 -0.248063 0.807110
			-0.562435 -0.149172 0.813274
			-0.066217 -0.155848 -0.985559
			0.167429 -0.219007 -0.961251
			-0.544521 -0.069603 -0.835855
			-0.911177 -0.396528 -0.111900
			0.252679 -0.242773 -0.936597
			0.435538 -0.673850 -0.596853
			0.481138 -0.863571 0.150832
			0.355154 -0.908773 0.219080
			0.318633 -0.836201 -0.446365
			0.667949 -0.700060 -0.252506
			0.734934 -0.104584 0.670026
			0.665635 -0.141916 0.732660
			0.506567 -0.274936 0.817191
			0.220072 -0.258192 0.940694
			-0.203523 -0.023060 0.978799
			-0.711213 0.163314 0.683743
			-0.625541 0.765931 -0.148483
			-0.481722 0.346810 -0.804778
			-0.840175 -0.313704 -0.442376
			-0.870102 -0.438283 0.225455
			-0.545899 -0.400668 -0.735839
			-0.650584 -0.595824 0.470886
			-0.379724 -0.534972 0.754728
			-0.125137 -0.650226 -0.749364
			0.178646 -0.674351 -0.716475
			-0.471182 -0.230179 -0.851473
			-0.613252 -0.231223 -0.755287
			-0.435388 -0.488929 -0.755900
			-0.568886 -0.771896 -0.283805
			-0.401562 -0.791064 0.461482
			0.162296 -0.971887 -0.170575
			0.162248 -0.969012 0.186259
			-0.043963 -0.971722 -0.232000
			-0.081333 -0.922977 0.376162
			0.075579 -0.838021 -0.540378
			0.275476 -0.891965 -0.358485
			0.613233 -0.662234 0.430572
			0.545133 -0.130603 0.828114
			0.415964 -0.285951 0.863253
			0.141482 -0.271719 0.951920
			-0.131469 -0.241779 0.961383
			-0.782352 -0.382196 0.491783
			-0.975689 0.080624 -0.203789
			-0.613871 -0.763817 0.199367
			-0.431748 -0.782099 0.449351
			-0.431656 -0.902028 -0.004332
			-0.178733 -0.826862 0.533248
			-0.097477 -0.994209 -0.045252
			-0.545615 -0.557240 -0.625929
			-0.859365 -0.465356 -0.211984
			-0.368602 -0.684735 -0.628705
			-0.277444 -0.694379 -0.663974
			-0.059946 -0.975482 0.211757
			0.143275 -0.986704 -0.076726
			-0.112823 -0.862297 -0.493674
			0.396658 -0.462902 0.792707
			0.022050 -0.452698 0.891391
			-0.453986 -0.569602 0.685165
			-0.715432 -0.698365 0.021057
			-0.260055 -0.919024 0.296255
			-0.520482 -0.803691 -0.288407
			-0.221855 -0.967776 -0.119121
			-0.035229 -0.900940 0.432510
			-0.390825 -0.899922 0.193383
		</DataArray>
	</PointData>
	<Points>
		<DataArray type="Float32" NumberOfComponents="3" format="ascii">
			-0.006409 0.016249 0.014657
			-0.002942 0.007692 0.020254
			-0.012487 0.013279 0.014709
			-0.004996 0.018877 0.011489
			0.000929 0.016125 0.016241
			0.006721 0.015966 0.014316
			-0.016200 0.006291 0.015656
			-0.013941 -0.002121 0.019012
			-0.005591 -0.006548 0.021835
			0.002645 -0.000887 0.023415
			0.007925 0.004164 0.020546
			0.006902 0.012429 0.017731
			-0.011342 0.016495 0.011147
			-0.017551 0.010363 0.011438
			-0.003819 0.021308 0.005733
			0.004965 0.019701 0.008624
			0.013012 0.010411 0.015491
			0.012285 0.016048 0.009795
			-0.019412 0.001715 0.013519
			-0.015188 -0.005448 0.017032
			-0.005501 -0.009522 0.020864
			0.003188 -0.006751 0.022647
			0.009506 -0.003108 0.021090
			0.012948 0.001930 0.019079
			-0.011070 0.019192 0.005237
			-0.017481 0.013950 0.005581
			-0.021440 0.005730 0.007787
			-0.003122 0.022348 0.000001
			0.003051 0.022200 0.000485
			0.009512 0.020082 0.001717
			0.017743 0.009689 0.010375
			0.016597 0.015206 0.003126
			-0.020153 -0.004399 0.011852
			-0.013917 -0.010546 0.016094
			-0.004218 -0.012411 0.019727
			0.004881 -0.010553 0.020726
			0.013024 -0.005899 0.018468
			0.018911 0.001342 0.013598
			-0.010217 0.020270 -0.000483
			-0.017128 0.015534 -0.000382
			-0.022469 0.006679 0.001573
			-0.022881 -0.002225 0.005675
			-0.009935 0.019605 -0.007046
			-0.003334 0.021704 -0.005937
			0.003312 0.021757 -0.005708
			0.009729 0.019940 -0.005382
			0.021139 -0.000449 0.010863
			0.020690 0.009162 0.005199
			0.017948 0.013512 -0.004691
			-0.018629 -0.010096 0.010533
			-0.011489 -0.014178 0.014790
			-0.001985 -0.016388 0.017071
			0.008985 -0.012908 0.017421
			0.016205 -0.008721 0.014869
			-0.016387 0.014896 -0.006790
			-0.021958 0.006621 -0.004320
			-0.023167 -0.003732 -0.000167
			-0.019436 -0.011757 0.006009
			-0.010605 0.016801 -0.011968
			-0.017878 0.011200 -0.010014
			-0.002870 0.019490 -0.011836
			0.005372 0.018861 -0.011883
			0.012918 0.015084 -0.011853
			0.022648 -0.004367 0.004742
			0.022314 0.005696 -0.001946
			0.018222 0.009620 -0.011167
			-0.012279 -0.016009 0.011941
			-0.001667 -0.018270 0.015055
			0.010245 -0.015782 0.013896
			0.018959 -0.010242 0.010315
			-0.022139 0.001321 -0.007422
			-0.022001 -0.007808 -0.002454
			-0.017947 -0.014437 0.006837
			-0.009407 -0.017899 0.011852
			-0.002289 0.016828 -0.015933
			-0.009532 0.014765 -0.015611
			-0.016310 0.008939 -0.014203
			0.004208 0.015565 -0.017214
			0.009114 0.013495 -0.017116
			0.013570 0.008292 -0.017144
			0.022666 -0.004878 -0.003997
			0.022022 0.001825 -0.008375
			0.018404 -0.000378 -0.014901
			0.002395 -0.019318 0.013262
			0.013184 -0.017412 0.007648
			0.019872 -0.012535 0.002647
			-0.020994 0.000763 -0.011633
			-0.021613 -0.006854 -0.006939
			-0.017094 -0.014041 0.000528
			-0.009743 -0.017599 0.006682
			-0.009635 0.010782 -0.018601
			-0.001782 0.012226 -0.019689
			-0.015029 0.004045 -0.016449
			-0.017269 -0.003625 -0.014741
			0.004928 0.009989 -0.020941
			0.011089 0.005694 -0.019883
			0.013738 -0.001754 -0.019245
			0.018055 -0.015554 -0.001497
			0.020059 -0.007359 -0.010069
			0.015696 -0.009257 -0.014658
			-0.001595 -0.019788 0.008561
			0.004804 -0.020501 0.007953
			0.012964 -0.018739 0.003792
			-0.016750 -0.012253 -0.006760
			-0.010888 -0.016572 -0.000789
			-0.003958 -0.019128 0.002048
			-0.008734 -0.001319 -0.019260
			-0.001722 0.003803 -0.019160
			-0.013507 -0.009408 -0.017130
			-0.012949 -0.016722 -0.010868
			0.004347 0.001468 -0.020551
			0.010849 -0.002059 -0.021370
			0.014795 -0.015612 -0.009005
			0.013031 -0.009303 -0.018245
			0.002949 -0.019542 0.001775
			0.010085 -0.018849 -0.001893
			-0.008246 -0.020660 -0.006336
			0.000945 -0.021786 -0.005396
			-0.005775 -0.007323 -0.027551
			-0.011262 -0.015170 -0.024588
			0.002025 -0.003081 -0.027982
			-0.011826 -0.021184 -0.018326
			-0.010558 -0.027233 -0.014566
			0.009316 -0.006393 -0.028670
			0.011997 -0.014049 -0.027542
			0.012353 -0.015123 -0.013445
			0.010969 -0.021305 -0.025251
			0.009229 -0.019496 -0.008642
			-0.006019 -0.030086 -0.011768
			0.001501 -0.030820 -0.013063
			0.001539 -0.003809 -0.034748
			-0.005260 -0.008844 -0.032408
			-0.010364 -0.017052 -0.028989
			-0.012392 -0.025046 -0.025251
			0.008042 -0.005939 -0.036453
			-0.012483 -0.033184 -0.018003
			-0.010592 -0.035639 -0.014780
			0.012931 -0.010334 -0.036172
			0.015084 -0.016472 -0.035665
			0.008521 -0.028023 -0.020642
			0.009388 -0.032025 -0.029376
			0.011899 -0.022463 -0.033762
			-0.000210 -0.038989 -0.016194
			0.006882 -0.037946 -0.021030
			0.002353 -0.002509 -0.041271
			0.008260 -0.003920 -0.042099
			-0.006018 -0.007025 -0.040017
			-0.008088 -0.015071 -0.040178
			-0.011454 -0.023602 -0.035236
			-0.014972 -0.033027 -0.027328
			0.012903 -0.007522 -0.043177
			-0.014579 -0.040066 -0.021486
			-0.013782 -0.044448 -0.016272
			0.014099 -0.012586 -0.043836
			0.009556 -0.028440 -0.037816
			0.011759 -0.019408 -0.042332
			0.005930 -0.045394 -0.022383
			0.008432 -0.037534 -0.031085
			-0.004287 -0.046123 -0.017860
			0.000282 -0.000586 -0.046796
			0.007025 -0.000865 -0.049527
			0.010974 -0.007116 -0.050195
			-0.014022 -0.001667 -0.039537
			-0.014689 -0.010885 -0.043739
			-0.016188 -0.020288 -0.042521
			-0.019155 -0.027359 -0.036954
			-0.018597 -0.035113 -0.032813
			0.011090 -0.016586 -0.049728
			-0.017811 -0.043109 -0.025692
			-0.017566 -0.047499 -0.020729
			-0.017100 -0.050377 -0.014164
			0.008184 -0.033175 -0.043610
			0.008735 -0.025991 -0.047269
			0.008542 -0.047537 -0.031957
			0.008137 -0.040207 -0.037639
			-0.010854 -0.052402 -0.018231
			0.000974 -0.053581 -0.021248
			0.007686 -0.051286 -0.025478
			0.001304 0.000384 -0.051280
			0.008738 -0.008912 -0.054006
			0.009237 -0.019029 -0.052721
			-0.013589 0.001529 -0.041628
			-0.021635 -0.002198 -0.038276
			-0.023062 -0.016396 -0.041721
			-0.024172 -0.027193 -0.039078
			-0.023147 -0.037520 -0.036907
			-0.022305 -0.045095 -0.029326
			0.006562 -0.036531 -0.048780
			0.008502 -0.028868 -0.052900
			-0.024712 -0.050149 -0.019673
			-0.022862 -0.053521 -0.013814
			-0.017090 -0.055760 -0.013581
			0.008882 -0.053838 -0.030842
			0.008259 -0.049910 -0.037991
			0.007327 -0.043344 -0.044233
			0.007410 -0.056632 -0.024814
			-0.012605 -0.056972 -0.018992
			-0.004820 -0.058067 -0.021374
			0.001254 -0.058574 -0.021823
			-0.001335 -0.001490 -0.055622
			-0.014727 0.001131 -0.048311
			0.003556 -0.010699 -0.058131
			0.005303 -0.019954 -0.059023
			-0.024106 -0.001061 -0.042930
			-0.026177 -0.017302 -0.044449
			-0.027303 -0.026708 -0.044775
			-0.026267 -0.036133 -0.044282
			-0.021201 -0.047147 -0.036900
			-0.025942 -0.053610 -0.023194
			0.003660 -0.037972 -0.054444
			0.006365 -0.030100 -0.058638
			-0.024396 -0.056835 -0.015888
			-0.018093 -0.059496 -0.014882
			-0.011962 -0.061094 -0.021349
			0.009910 -0.059920 -0.032586
			0.008399 -0.054441 -0.042012
			0.004548 -0.048723 -0.049255
			0.009261 -0.062742 -0.026459
			-0.004469 -0.063738 -0.022087
			0.003610 -0.064376 -0.022281
			-0.003986 -0.005983 -0.058185
			-0.018238 -0.003633 -0.054721
			-0.024087 -0.007215 -0.049361
			0.001490 -0.018084 -0.063505
			-0.024943 -0.015310 -0.050806
			-0.024518 -0.026177 -0.052435
			-0.022697 -0.034851 -0.051653
			-0.020292 -0.051667 -0.045016
			-0.019097 -0.058757 -0.033092
			-0.016196 -0.061844 -0.040125
			-0.024989 -0.060415 -0.023954
			-0.000621 -0.039424 -0.057168
			0.003630 -0.029380 -0.062864
			-0.022585 -0.062049 -0.017329
			-0.012488 -0.066033 -0.023895
			0.011163 -0.067201 -0.036187
			0.009796 -0.069216 -0.026311
			0.007535 -0.065462 -0.044770
			0.000565 -0.047836 -0.054375
			0.004486 -0.064307 -0.050059
			0.002231 -0.070301 -0.022360
			-0.006133 -0.068743 -0.023150
			-0.005178 -0.018831 -0.063892
			-0.014732 -0.017200 -0.061839
			-0.020102 -0.019199 -0.057753
			-0.003791 -0.032225 -0.062980
			-0.018827 -0.028578 -0.058694
			-0.014838 -0.063076 -0.047533
			-0.016013 -0.054934 -0.050968
			-0.017392 -0.041693 -0.054842
			-0.012224 -0.073187 -0.040618
			-0.016972 -0.066002 -0.029521
			-0.007335 -0.042835 -0.057080
			0.014546 -0.083414 -0.033518
			0.012947 -0.083414 -0.026265
			0.005916 -0.084573 -0.022575
			-0.001114 -0.065224 -0.053024
			-0.006481 -0.053013 -0.054361
			0.008670 -0.083305 -0.045046
			-0.002692 -0.085186 -0.025183
			-0.005598 -0.076417 -0.025808
			-0.011451 -0.031288 -0.062212
			-0.009221 -0.064257 -0.051584
			-0.007320 -0.088350 -0.033921
			-0.005300 -0.086157 -0.048699
			0.017527 -0.114743 -0.039885
			0.018577 -0.107347 -0.027628
			0.010547 -0.113007 -0.019660
			0.001611 -0.085334 -0.051459
			0.006539 -0.115449 -0.048413
			-0.001107 -0.114730 -0.029035
			0.000016 -0.116932 -0.046126
			0.022456 -0.145764 -0.039185
			0.025812 -0.143353 -0.027180
			0.015530 -0.143528 -0.015815
			0.005640 -0.146576 -0.024612
			0.013436 -0.147796 -0.043520
			0.005751 -0.149026 -0.039024
			0.027180 -0.178401 -0.036311
			0.029993 -0.175554 -0.025231
			0.020039 -0.175162 -0.013403
			0.009484 -0.175151 -0.021651
			0.009955 -0.177528 -0.033585
			0.017169 -0.176914 -0.040054
			0.029003 -0.206374 -0.033625
			0.031150 -0.204443 -0.019109
			0.019356 -0.204587 -0.011814
			0.011811 -0.206800 -0.018757
			0.012554 -0.208076 -0.030435
			0.019441 -0.207960 -0.036672
			0.031112 -0.241751 -0.029423
			0.032872 -0.239962 -0.016346
			0.022254 -0.238952 -0.008036
			0.013184 -0.239368 -0.014273
			0.013457 -0.242416 -0.026173
			0.021656 -0.242579 -0.032788
			0.032165 -0.274641 -0.024504
			0.033859 -0.273026 -0.013423
			0.023242 -0.270831 -0.004308
			0.012880 -0.272479 -0.010868
			0.013721 -0.275061 -0.024062
			0.021938 -0.276413 -0.028770
			0.021282 -0.307083 -0.025834
			0.028742 -0.306786 -0.023518
			0.032470 -0.305174 -0.008826
			0.025078 -0.303786 -0.000199
			0.015806 -0.303605 -0.003451
			0.010420 -0.304867 -0.012530
			0.013232 -0.306907 -0.023089
			0.018525 -0.340184 -0.023850
			0.029172 -0.340585 -0.020717
			0.031520 -0.341299 -0.006478
			0.022805 -0.338525 0.005003
			0.013412 -0.337084 0.001840
			0.009200 -0.337793 -0.008515
			0.009358 -0.339171 -0.020215
			0.015317 -0.367059 -0.024128
			0.029216 -0.369993 -0.017838
			0.027950 -0.368313 -0.001556
			0.022834 -0.365258 0.008763
			0.011961 -0.362424 0.010120
			0.006656 -0.367552 -0.006462
			0.005894 -0.366642 -0.020804
			0.001400 -0.379953 -0.023566
			0.014332 -0.381437 -0.025670
			0.028447 -0.386524 -0.020366
			0.027304 -0.384931 0.000866
			0.019279 -0.378024 0.013983
			0.009179 -0.375358 0.018018
			0.005564 -0.377939 0.008893
			0.004560 -0.380700 -0.003684
			-0.004080 -0.386908 -0.029324
			0.010722 -0.394172 -0.031708
			-0.002148 -0.386950 -0.015181
			0.021536 -0.397334 -0.028586
			0.033650 -0.397236 -0.020711
			0.030943 -0.395803 -0.008103
			0.028798 -0.395923 0.002157
			0.024368 -0.391159 0.013358
			0.017810 -0.388099 0.020729
			0.003371 -0.387986 0.032940
			0.008050 -0.382211 0.023192
			0.001672 -0.386063 0.012935
			0.001368 -0.387863 -0.000780
			-0.010696 -0.391566 -0.030117
			-0.011532 -0.390087 -0.015400
			0.001135 -0.398518 -0.036673
			0.009026 -0.402182 -0.034500
			-0.008675 -0.392127 -0.010013
			0.019965 -0.404484 -0.029434
			0.033645 -0.405952 -0.021107
			0.030549 -0.405345 -0.008634
			0.027709 -0.406431 0.000298
			0.030273 -0.405352 0.007983
			0.023127 -0.399990 0.018052
			0.015985 -0.394771 0.027424
			0.014289 -0.402297 0.030093
			0.008331 -0.397918 0.036522
			-0.000537 -0.394027 0.036912
			-0.003974 -0.391301 0.025263
			-0.004601 -0.392524 0.015814
			-0.004365 -0.394464 0.001181
			-0.018195 -0.397000 -0.028869
			-0.011117 -0.402755 -0.036155
			-0.019568 -0.395546 -0.023288
			-0.013185 -0.400649 -0.007354
			-0.018697 -0.397443 -0.013247
			-0.003538 -0.406224 -0.037771
			0.006343 -0.408443 -0.034616
			-0.004624 -0.400066 0.000797
			0.015765 -0.411899 -0.029978
			0.022797 -0.413354 -0.027878
			0.029274 -0.414204 -0.022561
			0.027592 -0.413645 -0.010733
			0.023076 -0.412977 -0.000179
			0.027191 -0.413810 0.006039
			0.030737 -0.414385 0.010222
			0.027047 -0.410568 0.016300
			0.021772 -0.407738 0.021279
			0.012049 -0.409421 0.030572
			0.003462 -0.402633 0.037778
			-0.010675 -0.397554 0.035126
			-0.018675 -0.394122 0.026737
			-0.006829 -0.393543 0.027602
			-0.012991 -0.392955 0.017909
			-0.010757 -0.398362 0.012078
			-0.022738 -0.406220 -0.031017
			-0.024111 -0.404414 -0.024576
			-0.014204 -0.410292 -0.031576
			-0.022476 -0.405472 -0.015218
			-0.005081 -0.408388 -0.006994
			-0.018503 -0.408765 -0.009874
			-0.008141 -0.413578 -0.033157
			0.001466 -0.416642 -0.032542
			-0.003622 -0.408863 0.008681
			0.001651 -0.410554 0.001239
			0.014901 -0.417720 -0.028856
			0.021163 -0.421304 -0.025936
			0.020695 -0.421241 -0.014688
			0.016933 -0.417887 -0.004719
			0.018301 -0.418868 0.003776
			0.026442 -0.421107 0.011376
			0.024694 -0.417231 0.018615
			0.018721 -0.413299 0.022723
			0.009671 -0.414317 0.030812
			-0.000711 -0.411863 0.035789
			-0.010857 -0.409211 0.035842
			-0.023817 -0.408518 0.032532
			-0.020585 -0.395822 0.019681
			-0.019486 -0.403336 0.012045
			-0.023010 -0.412954 -0.029231
			-0.023726 -0.410552 -0.020848
			-0.017568 -0.417224 -0.032834
			-0.017111 -0.415397 -0.013463
			-0.007689 -0.416280 -0.008388
			-0.009428 -0.422335 -0.033116
			0.003874 -0.423059 -0.030521
			-0.015901 -0.415554 0.013322
			-0.020979 -0.409831 0.013275
			-0.007152 -0.422000 0.013150
			0.004832 -0.416357 0.000570
			0.004910 -0.417706 -0.006206
			0.011736 -0.423568 -0.026207
			0.012248 -0.424598 -0.018183
			0.010725 -0.418415 -0.000247
			0.010212 -0.421177 -0.009663
			0.011631 -0.421603 0.004928
			0.016700 -0.425625 0.012554
			0.019369 -0.425175 0.021899
			0.014280 -0.418886 0.025548
			0.006622 -0.420808 0.029380
			0.000170 -0.417849 0.033910
			-0.010744 -0.415455 0.035232
			-0.021185 -0.414476 0.032803
			-0.025203 -0.403513 0.019798
			-0.016403 -0.419300 -0.019534
			-0.011602 -0.418955 -0.013710
			-0.013584 -0.421751 -0.025450
			-0.000921 -0.420783 -0.011563
			-0.002825 -0.424534 -0.024017
			-0.017158 -0.420793 0.017450
			-0.023832 -0.415806 0.022000
			-0.006418 -0.426428 0.015391
			0.003783 -0.421652 0.007012
			0.004090 -0.424559 -0.017775
			0.006342 -0.430363 0.020716
			0.001859 -0.429172 0.015161
			0.009057 -0.428067 0.027637
			-0.007397 -0.425121 0.033531
			-0.016717 -0.422695 0.030643
			-0.018676 -0.422181 0.023434
			-0.006624 -0.422840 -0.017806
			-0.011729 -0.426908 0.020370
			-0.004371 -0.429494 0.020201
			-0.001586 -0.428210 0.030989
			-0.011014 -0.427177 0.026639
		</DataArray>
	</Points>
			<Polys>
				<DataArray type="Int32" Name="connectivity" format="ascii">
					2 1 0 
					0 3 2 
					0 1 4 
					4 5 0 
					5 3 0 
					6 1 2 
					7 1 6 
					8 1 7 
					9 1 8 
					10 1 9 
					11 1 10 
					4 1 11 
					3 12 2 
					12 13 2 
					2 13 6 
					3 14 12 
					5 15 3 
					15 14 3 
					11 16 4 
					16 5 4 
					16 17 5 
					17 15 5 
					13 18 6 
					6 18 7 
					18 19 7 
					7 19 8 
					19 20 8 
					8 20 9 
					20 21 9 
					9 21 10 
					21 22 10 
					22 23 10 
					10 23 11 
					23 16 11 
					14 24 12 