<?xml version="1.0"?>
<VTKFile type="PolyData" version="0.1" byte_order="LittleEndian" compressor="vtkZLibDataCompressor">
	<PolyData>
		<Piece NumberOfPoints="122" NumberOfVerts="0" NumberOfLines="0" NumberOfStrips="0" NumberOfPolys="130">
		<PointData Normals="Normals">
		<DataArray type="Float32" Name="Normals" NumberOfComponents="3" format="ascii">
			0.344744 -0.601212 0.720899
			-0.369184 -0.793608 0.483622
			-0.215827 -0.538044 0.814817
			0.008283 -0.559911 0.828511
			-0.242921 -0.939867 0.240080
			0.122136 -0.610291 0.782705
			0.405211 -0.649295 0.643599
			0.685779 -0.695661 0.213926
			0.761727 -0.637560 -0.115282
			0.508991 -0.858980 -0.055506
			-0.129745 -0.985442 0.109865
			-0.943827 -0.293063 0.152655
			-0.768856 -0.188301 0.611068
			-0.826944 -0.494906 -0.266893
			-0.274006 -0.132699 0.952530
			0.331059 -0.087560 0.939538
			-0.353856 -0.611002 -0.708140
			0.821302 -0.020963 0.570108
			0.988975 0.101594 -0.107735
			0.774327 0.024682 -0.632304
			0.318444 -0.387236 -0.865242
			-0.915573 -0.147510 0.374122
			-0.681050 -0.000387 0.732236
			-0.945025 -0.300197 -0.129646
			-0.242950 0.181483 0.952910
			-0.490381 -0.426695 -0.759906
			0.289428 0.287740 0.912928
			0.789968 0.286702 0.541990
			0.518095 -0.192316 -0.833422
			0.958979 0.248015 0.137286
			0.961561 0.159773 -0.223323
			-0.951245 0.205903 -0.229647
			-0.916806 0.114659 0.382518
			-0.649433 0.354205 -0.672887
			-0.342832 0.077891 0.936162
			-0.123969 0.418592 -0.899673
			0.157021 0.071955 0.984971
			0.348854 0.252511 -0.902518
			0.689878 0.064649 0.721033
			0.950873 0.028983 0.308222
			0.970178 0.025796 -0.241018
			-0.889141 0.151817 -0.431718
			-0.851506 0.027067 0.523646
			0.053390 0.338574 -0.939424
			-0.286515 0.006875 0.958051
			0.327839 0.476269 -0.815898
			0.323256 0.018523 0.946130
			-0.001920 0.308237 -0.951307
			0.908531 0.034503 0.416390
			0.615748 0.042216 -0.786811
			0.995494 0.032842 -0.088955
			-0.992421 -0.038908 -0.116555
			-0.659210 -0.042168 0.750776
			-0.176575 0.039534 -0.983493
			-0.217207 -0.026537 0.975765
			0.198223 0.093840 -0.975654
			0.535017 -0.006962 0.844813
			0.063344 0.059130 -0.996238
			0.996003 0.010130 0.088740
			0.723825 0.013505 -0.689851
			0.999670 0.010108 -0.023588
			-0.976529 -0.029113 -0.213414
			-0.740135 -0.019848 0.672165
			-0.257946 -0.004998 -0.966147
			-0.299277 -0.002056 0.954164
			0.087370 0.008252 -0.996142
			0.230319 0.014749 0.973004
			0.220284 -0.004836 -0.975424
			0.831660 0.004428 0.555267
			0.996755 -0.078624 0.017248
			0.778127 -0.040504 0.626800
			-0.968396 -0.013206 -0.249068
			-0.809603 0.000794 0.586977
			-0.334679 -0.012060 -0.942255
			-0.362653 0.016813 0.931773
			0.056941 -0.006526 -0.998357
			-0.070564 0.025276 0.997187
			0.095061 -0.024642 -0.995166
			0.401748 -0.018245 0.915569
			0.921618 -0.368210 -0.122643
			0.600842 -0.132299 0.788344
			-0.939050 0.008541 -0.343674
			-0.962729 0.021051 0.269644
			-0.588907 -0.030981 -0.807607
			-0.496006 -0.015089 0.868188
			-0.077833 -0.040774 -0.996132
			-0.141145 -0.037873 0.989264
			0.019264 -0.036762 -0.999138
			0.253808 -0.050746 0.965922
			0.460412 -0.162309 -0.872741
			0.785984 -0.127613 0.604933
			-0.963593 0.002451 -0.267360
			-0.991525 -0.007741 -0.129688
			-0.935462 -0.094935 -0.340436
			-0.643564 -0.320810 0.694915
			-0.326711 -0.156100 -0.932144
			0.170210 -0.484243 0.858217
			0.305147 -0.095611 -0.947494
			0.684339 -0.131323 0.717240
			0.676933 0.228694 -0.699615
			0.936638 0.334131 0.105196
			-0.996904 0.020827 -0.075832
			-0.989818 0.011490 -0.141873
			-0.998562 0.050988 0.016583
			-0.723028 -0.105519 0.682711
			-0.525654 0.140080 -0.839086
			0.392051 -0.182834 0.901591
			0.607410 0.299113 -0.735924
			0.829080 0.202591 0.521136
			0.805378 0.591494 -0.038738
			0.729721 0.606946 0.314840
			-0.947892 0.314871 0.048543
			-0.876924 0.436917 -0.200271
			-0.829388 0.332941 0.448626
			-0.521265 0.760335 0.387524
			-0.624592 0.742426 0.242257
			-0.061882 0.797441 0.600216
			0.165742 0.936567 0.308824
			0.014800 0.807043 0.590307
			0.107720 0.811775 0.573949
			-0.009648 0.802237 0.596927
			-0.517156 0.730222 0.446458
			-0.020456 -0.400747 -0.016538
			-0.025586 -0.407066 -0.016094
			-0.025110 -0.399877 -0.012708
			-0.022300 -0.392631 -0.010068
			-0.023484 -0.405716 -0.018419
			-0.018100 -0.392526 -0.010318
			-0.012922 -0.395169 -0.011759
			-0.009257 -0.397859 -0.017279
			-0.015308 -0.401116 -0.020796
			-0.019886 -0.404321 -0.018518
			-0.021179 -0.404354 -0.018433
			-0.026257 -0.397634 -0.016227
			-0.027899 -0.391143 -0.010702
			-0.026493 -0.396184 -0.020403
			-0.024072 -0.384512 -0.004121
			-0.015994 -0.384309 -0.004562
			-0.023617 -0.394655 -0.024426
			-0.009471 -0.385299 -0.009516
			-0.007075 -0.386399 -0.017501
			-0.012101 -0.390453 -0.023656
			-0.018446 -0.394525 -0.024740
			-0.030352 -0.386656 -0.016207
			-0.027493 -0.380218 -0.011406
			-0.030682 -0.387497 -0.023186
			-0.022870 -0.373741 -0.009609
			-0.025773 -0.388206 -0.029903
			-0.018181 -0.373623 -0.009835
			-0.015771 -0.370804 -0.013597
			-0.017046 -0.387987 -0.030399
			-0.016246 -0.368056 -0.017233
			-0.013466 -0.377941 -0.022792
			-0.028270 -0.369007 -0.016678
			-0.026348 -0.364387 -0.012848
			-0.030166 -0.375103 -0.023013
			-0.022787 -0.359729 -0.011101
			-0.026109 -0.381049 -0.030765
			-0.018906 -0.359632 -0.011257
			-0.016894 -0.380818 -0.031250
			-0.016507 -0.346871 -0.014115
			-0.016225 -0.334167 -0.017681
			-0.013190 -0.357408 -0.023421
			-0.026588 -0.359191 -0.016943
			-0.025483 -0.342698 -0.014214
			-0.027071 -0.368502 -0.021056
			-0.023025 -0.326175 -0.012919
			-0.024078 -0.377726 -0.025441
			-0.019949 -0.326098 -0.012982
			-0.018419 -0.377584 -0.025728
			-0.018225 -0.280931 -0.015487
			-0.016177 -0.306649 -0.022206
			-0.017881 -0.235804 -0.019075
			-0.030583 -0.301616 -0.018041
			-0.028738 -0.280371 -0.013801
			-0.027229 -0.330059 -0.021573
			-0.024940 -0.259085 -0.011894
			-0.022914 -0.358463 -0.022085
			-0.020410 -0.258971 -0.011806
			-0.019678 -0.358382 -0.022211
			-0.019370 -0.199821 -0.016691
			-0.019324 -0.249537 -0.021294
			-0.021206 -0.140746 -0.020824
			-0.032538 -0.236171 -0.019558
			-0.030903 -0.208081 -0.014746
			-0.027692 -0.264904 -0.022653
			-0.026800 -0.179939 -0.012275
			-0.023106 -0.293623 -0.021459
			-0.021472 -0.179805 -0.011923
			-0.021003 -0.293570 -0.021461
			-0.018602 -0.143912 -0.016290
			-0.019471 -0.200832 -0.022385
			-0.018735 -0.108102 -0.021134
			-0.033166 -0.187638 -0.020749
			-0.031219 -0.159376 -0.016191
			-0.028694 -0.192436 -0.024378
			-0.027217 -0.131076 -0.014313
			-0.024370 -0.197214 -0.023764
			-0.022544 -0.130959 -0.013869
			-0.021945 -0.197153 -0.023628
			-0.017703 -0.106247 -0.015629
			-0.017794 -0.139383 -0.024867
			-0.014107 -0.081593 -0.020994
			-0.032197 -0.138090 -0.021876
			-0.030798 -0.110493 -0.018060
			-0.028670 -0.135090 -0.025176
			-0.027528 -0.082864 -0.016369
			-0.025038 -0.132069 -0.025094
			-0.023513 -0.082763 -0.015871
			-0.022619 -0.132008 -0.024866
			-0.015759 -0.076857 -0.013899
			-0.014854 -0.101532 -0.027387
			-0.006701 -0.070981 -0.020167
			-0.029967 -0.105125 -0.022430
			-0.030663 -0.086707 -0.018911
			-0.028780 -0.102838 -0.025758
			-0.028420 -0.068213 -0.015296
			-0.025755 -0.100497 -0.027824
			-0.023446 -0.068088 -0.014636
			-0.022055 -0.100404 -0.027405
			-0.015598 -0.063328 -0.013760
			-0.014343 -0.079532 -0.028112
			-0.007373 -0.058616 -0.020379
			-0.028275 -0.069569 -0.023035
			-0.032415 -0.067194 -0.018595
			-0.032061 -0.063842 -0.029505
			-0.030860 -0.064653 -0.010427
			-0.027866 -0.057945 -0.038833
			-0.022520 -0.064442 -0.009302
			-0.017925 -0.057694 -0.037453
			-0.016528 -0.058306 -0.014662
			-0.013489 -0.054917 -0.029052
			-0.015230 -0.052297 -0.021563
			-0.028931 -0.056553 -0.023421
			-0.030264 -0.054932 -0.020148
			-0.028492 -0.049884 -0.026311
			-0.028531 -0.053229 -0.015893
			-0.026098 -0.043164 -0.028599
			-0.023724 -0.053107 -0.015211
			-0.022734 -0.043079 -0.028102
			-0.020596 -0.050450 -0.018630
			-0.020633 -0.045453 -0.025493
			-0.020466 -0.047868 -0.022391
			-0.025090 -0.051895 -0.022980
		</DataArray>
	</PointData>
	</Points>
			<Polys>
				<DataArray type="Int32" Name="connectivity" format="ascii">
					56 66 64 54 
					55 65 67 57 
					58 68 66 56 
					57 67 69 59 
					60 70 68 58 
					59 69 70 60 
					62 72 71 61 
					61 71 73 63 
					64 74 72 62 
					63 73 75 65 
					66 76 74 64 
					65 75 77 67 
					68 78 76 66 
					67 77 79 69 
					70 80 78 68 
					69 79 80 70 
					72 82 81 71 
					71 81 83 73 
					74 84 82 72 
					73 83 85 75 
					76 86 84 74 
					75 85 87 77 
					78 88 86 76 
					77 87 89 79 
					80 90 88 78 
					79 89 90 80 
					82 92 91 81 
					81 91 93 83 
					84 94 92 82 
					83 93 95 85 
					86 96 94 84 
					85 95 97 87 
					88 98 96 86 
					87 97 99 89 
					90 100 98 88 
					89 99 100 90 
					92 102 101 91 
					91 101 103 93 
					94 104 102 92 
					93 103 105 95 
					96 106 104 94 
					95 105 107 97 
					98 108 106 96 
					97 107 109 99 
					100 110 108 98 
					99 109 110 100 
					102 112 111 101 
					101 111 113 103 
					104 114 112 102 
					103 113 115 105 
					106 116 114 104 
					105 115 117 107 
					108 118 116 106 
					107 117 119 109 
					110 120 118 108 
					109 119 120 110 
					112 121 111 
					111 121 113 
					114 121 112 
					113 121 115 
					116 121 114 
					115 121 117 
					118 121 116 
					117 121 119 
					120 121 118 
					119 121 120 
				</DataArray>
				<DataArray type="Int32" Name="offsets" format="ascii">
					3 6 9 12 15 18 21 24 27 30 34 38 42 46 50 54 58 62 66 70 74 78 82 86 90 94 98 102 106 110 114 118 122 126 130 134 138 142 146 150 154 158 162 166 170 174 178 182 186 190 194 198 202 206 210 214 218 222 226 230 234 238 242 246 250 254 258 262 266 270 274 278 282 286 290 294 298 302 306 310 314 318 322 326 330 334 338 342 346 350 354 358 362 366 370 374 378 382 386 390 394 398 402 406 410 414 418 422 426 430 434 438 442 446 450 454 458 462 466 470 473 476 479 482 485 488 491 494 497 500 
				</DataArray>
			</Polys>
		</Piece>
	</PolyData>
</VTKFile>
