<?xml version="1.0"?>
<VTKFile type="PolyData" version="0.1" byte_order="LittleEndian" compressor="vtkZLibDataCompressor">
	<PolyData>
		<Piece NumberOfPoints="122" NumberOfVerts="0" NumberOfLines="0" NumberOfStrips="0" NumberOfPolys="130">
		<PointData Normals="Normals">
		<DataArray type="Float32" Name="Normals" NumberOfComponents="3" format="ascii">
			0.319098 -0.601210 -0.732613
			-0.386278 -0.793602 -0.470090
			-0.244369 -0.538043 -0.806718
			-0.020359 -0.559910 -0.828303
			0.095015 -0.610292 -0.786458
			0.382579 -0.649294 -0.657305
			0.677864 -0.695661 -0.237814
			0.765321 -0.637562 0.088309
			0.510632 -0.858988 0.037349
			-0.133577 -0.985441 -0.105177
			-0.251334 -0.939867 -0.231258
			-0.948593 -0.293063 -0.119526
			-0.789438 -0.188302 -0.584234
			-0.817132 -0.494907 0.295571
			-0.306081 -0.132701 -0.942711
			0.299083 -0.087559 -0.950202
			0.801489 -0.020962 -0.597641
			0.992067 0.101592 0.074036
			0.795601 0.024680 0.605318
			0.348297 -0.387236 0.853662
			-0.329043 -0.611000 0.720006
			-0.927775 -0.147511 -0.342743
			-0.705176 -0.000388 -0.709033
			-0.940053 -0.300199 0.161805
			-0.274166 0.181483 -0.944403
			-0.464125 -0.426693 0.776222
			0.259246 0.287739 -0.921953
			0.771857 0.286701 -0.567485
			0.954029 0.248014 -0.168279
			0.968458 0.159773 0.191211
			0.546257 -0.192313 0.815242
			-0.943286 0.205902 0.260415
			-0.928604 0.114658 -0.352913
			-0.626857 0.354204 0.693967
			-0.372312 0.077892 -0.924833
			-0.093718 0.418592 0.903326
			0.125760 0.071954 -0.989448
			0.378919 0.252512 0.890314
			0.667536 0.064648 -0.741766
			0.941392 0.028983 -0.336068
			0.977281 0.025796 0.210371
			-0.875052 0.151816 0.459603
			-0.866915 0.027067 -0.497722
			0.083833 0.338574 0.937198
			-0.313911 0.006875 -0.949427
			0.354788 0.476269 0.804546
			0.295959 0.018523 -0.955021
			0.029711 0.308237 0.950845
			0.897951 0.034503 -0.438741
			0.636770 0.042216 0.769898
			0.997127 0.032842 0.068257
			-0.988979 -0.038908 0.142858
			-0.677538 -0.042168 -0.734278
			-0.147927 0.039534 0.988208
			-0.239409 -0.026537 -0.970556
			0.228922 0.093840 0.968911
			0.515617 -0.006962 -0.856791
			0.094739 0.059130 0.993744
			0.994288 0.010130 -0.106241
			0.738786 0.013505 0.673805
			0.999886 0.010108 0.011199
			-0.971879 -0.029113 0.233673
			-0.752325 -0.019848 -0.658492
			-0.235342 -0.004998 0.971900
			-0.314356 -0.002056 -0.949303
			0.113101 0.008253 0.993549
			0.214888 0.014749 -0.976528
			0.245412 -0.004836 0.969407
			0.824557 0.004429 -0.565762
			0.996295 -0.078628 -0.034852
			0.772122 -0.040503 -0.634182
			-0.964150 -0.013206 0.265030
			-0.817757 0.000794 -0.575563
			-0.318660 -0.012059 0.947792
			-0.373383 0.016813 -0.927525
			0.074271 -0.006526 0.997217
			-0.082059 0.025276 -0.996307
			0.112322 -0.024642 0.993367
			0.393164 -0.018245 -0.919288
			0.923054 -0.368211 0.111320
			0.595162 -0.132300 -0.792641
			-0.934803 0.008541 0.355065
			-0.965306 0.021051 -0.260272
			-0.579255 -0.030981 0.814557
			-0.502329 -0.015090 -0.864545
			-0.066243 -0.040774 0.996970
			-0.148354 -0.037873 -0.988209
			0.030873 -0.036762 0.998847
			0.247268 -0.050747 -0.967618
			0.468195 -0.162308 0.868591
			0.782190 -0.127613 -0.609832
			-0.961077 0.002451 0.276272
			-0.990505 -0.007741 0.137254
			-0.932342 -0.094936 0.348894
			-0.647724 -0.320812 -0.691038
			-0.318454 -0.156101 0.934998
			0.165062 -0.484246 -0.859221
			0.313508 -0.095611 0.944760
			0.680331 -0.131326 -0.721043
			0.681817 0.228694 0.694856
			0.936083 0.334129 -0.110025
			-0.996419 0.020828 0.081941
			-0.988962 0.011489 0.147725
			-0.998639 0.050989 -0.010968
			-0.726902 -0.105521 -0.678586
			-0.521372 0.140078 0.841754
			0.386934 -0.182836 -0.903799
			0.611138 0.299114 0.732832
			0.826395 0.202589 -0.525385
			0.805555 0.591496 0.034841
			0.728262 0.606945 -0.318200
			-0.948121 0.314876 -0.043819
			-0.875944 0.436920 0.204510
			-0.831352 0.332942 -0.444976
			-0.523075 0.760336 -0.385074
			-0.625514 0.742420 -0.239886
			-0.064692 0.797443 -0.599917
			0.164558 0.936570 -0.309448
			0.012173 0.807047 -0.590361
			0.105414 0.811770 -0.574384
			-0.012166 0.802233 -0.596886
			-0.519192 0.730222 -0.444089
		</DataArray>
	</PointData>
	<Points>
		<DataArray type="Float32" NumberOfComponents="3" format="ascii">
			-0.019860 -0.400747 0.017249
			-0.024993 -0.407066 0.017000
			-0.024648 -0.399877 0.013584
			-0.021938 -0.392631 0.010833
			-0.017733 -0.392526 0.010937
			-0.012505 -0.395169 0.012201
			-0.008646 -0.397859 0.017593
			-0.014565 -0.401116 0.021323
			-0.019214 -0.404321 0.019214
			-0.020509 -0.404354 0.019175
			-0.022811 -0.405716 0.019246
			-0.025673 -0.397634 0.017136
			-0.027514 -0.391143 0.011657
			-0.025766 -0.396184 0.021315
			-0.023919 -0.384512 0.004934
			-0.015830 -0.384309 0.005100
			-0.009143 -0.385299 0.009831
			-0.006475 -0.386399 0.017732
			-0.011281 -0.390453 0.024058
			-0.017576 -0.394525 0.025365
			-0.022754 -0.394655 0.025232
			-0.029782 -0.386656 0.017230
			-0.027096 -0.380218 0.012320
			-0.029873 -0.387497 0.024219
			-0.022541 -0.373741 0.010356
			-0.024736 -0.388206 0.030766
			-0.017848 -0.373623 0.010428
			-0.015319 -0.370804 0.014104
			-0.015679 -0.368056 0.017750
			-0.012700 -0.377941 0.023227
			-0.015998 -0.387987 0.030964
			-0.027713 -0.369007 0.017588
			-0.025922 -0.364387 0.013686
			-0.029390 -0.375103 0.023997
			-0.022424 -0.359729 0.011817
			-0.025063 -0.381049 0.031624
			-0.018540 -0.359632 0.011849
			-0.015837 -0.380818 0.031799
			-0.016068 -0.346871 0.014613
			-0.015698 -0.334167 0.018150
			-0.012446 -0.357408 0.023825
			-0.026039 -0.359191 0.017776
			-0.025042 -0.342698 0.014976
			-0.026374 -0.368502 0.021923
			-0.022645 -0.326175 0.013575
			-0.023219 -0.377726 0.026228
			-0.019568 -0.326098 0.013549
			-0.017554 -0.377584 0.026326
			-0.017837 -0.280931 0.015933
			-0.015572 -0.306649 0.022635
			-0.017481 -0.235804 0.019442
			-0.030093 -0.301616 0.018847
			-0.028389 -0.280371 0.014506
			-0.026591 -0.330059 0.022356
			-0.024663 -0.259085 0.012459
			-0.022205 -0.358463 0.022797
			-0.020136 -0.258971 0.012268
			-0.018967 -0.358382 0.022821
			-0.019074 -0.199821 0.017029
			-0.018852 -0.249537 0.021713
			-0.020946 -0.140746 0.021085
			-0.032125 -0.236171 0.020230
			-0.030628 -0.208081 0.015310
			-0.027156 -0.264904 0.023293
			-0.026602 -0.179939 0.012698
			-0.022544 -0.293623 0.022049
			-0.021280 -0.179805 0.012261
			-0.020441 -0.293570 0.021997
			-0.018394 -0.143912 0.016525
			-0.019072 -0.200832 0.022725
			-0.018533 -0.108102 0.021311
			-0.032819 -0.187638 0.021294
			-0.030989 -0.159376 0.016627
			-0.028277 -0.192436 0.024860
			-0.027050 -0.131076 0.014627
			-0.023954 -0.197214 0.024183
			-0.022382 -0.130959 0.014128
			-0.021532 -0.197153 0.024006
			-0.017556 -0.106247 0.015794
			-0.017488 -0.139383 0.025083
			-0.013956 -0.081593 0.021094
			-0.031928 -0.138090 0.022266
			-0.030621 -0.110493 0.018359
			-0.028369 -0.135090 0.025515
			-0.027408 -0.082864 0.016570
			-0.024745 -0.132069 0.025384
			-0.023396 -0.082763 0.016042
			-0.022328 -0.132008 0.025127
			-0.015665 -0.076857 0.014005
			-0.014609 -0.101532 0.027519
			-0.006575 -0.070981 0.020209
			-0.029758 -0.105125 0.022706
			-0.030518 -0.086707 0.019145
			-0.028545 -0.102838 0.026017
			-0.028328 -0.068213 0.015467
			-0.025508 -0.100497 0.028051
			-0.023357 -0.068088 0.014777
			-0.021812 -0.100404 0.027598
			-0.015521 -0.063328 0.013847
			-0.014146 -0.079532 0.028212
			-0.007268 -0.058616 0.020417
			-0.028133 -0.069569 0.023208
			-0.032305 -0.067194 0.018787
			-0.031894 -0.063842 0.029685
			-0.030800 -0.064653 0.010602
			-0.027668 -0.057945 0.038975
			-0.022467 -0.064442 0.009429
			-0.017734 -0.057694 0.037543
			-0.016452 -0.058306 0.014747
			-0.013348 -0.054917 0.029117
			-0.015131 -0.052297 0.021633
			-0.028814 -0.056553 0.023565
			-0.030166 -0.054932 0.020294
			-0.028377 -0.049884 0.026436
			-0.028456 -0.053229 0.016027
			-0.025989 -0.043164 0.028698
			-0.023653 -0.053107 0.015322
			-0.022628 -0.043079 0.028188
			-0.020514 -0.050450 0.018722
			-0.020531 -0.045453 0.025575
			-0.020372 -0.047868 0.022477
			-0.024985 -0.051895 0.023094
		</DataArray>
	</Points>
			<Polys>
				<DataArray type="Int32" Name="connectivity" format="ascii">
			-0.025455 -0.039599 0.011588
			-0.024147 -0.047352 -0.007236
			-0.022169 -0.047520 -0.014192
			-0.014888 -0.049644 -0.022519
			-0.015812 -0.047665 0.019773
			-0.012431 -0.045080 0.029929
			0.024475 -0.059978 0.017530
			0.027008 -0.055113 0.011639
			0.019450 -0.052754 0.025031
			0.009160 -0.036497 0.036021
			-0.004966 -0.048463 -0.024761
			-0.006048 -0.020983 0.007504
			0.003337 -0.022903 0.013394
			0.018858 -0.041654 -0.005863
			0.021626 -0.045672 0.003810
			-0.026334 -0.029804 0.013288
			-0.024717 -0.026755 0.009207
			-0.027659 -0.031321 0.020469
			-0.026466 -0.042262 0.024753
			-0.022299 -0.028325 0.002894
			-0.029665 -0.039725 -0.001722
			-0.029653 -0.031001 -0.016005
			-0.023850 -0.032661 -0.027746
			-0.028956 -0.032299 -0.021686
			-0.004305 -0.027221 -0.030704
			-0.016906 -0.031483 -0.030831
			-0.016459 -0.036723 0.036678
			-0.001270 -0.028391 0.038213
			0.021454 -0.050659 0.019238
			0.017452 -0.031780 0.025789
			0.011741 -0.024951 0.028481
			0.011921 -0.033646 -0.017951
			-0.000791 -0.022569 0.000850
			-0.003941 -0.023207 0.020228
			-0.011284 -0.017999 0.006074
			-0.006781 -0.021303 -0.000263
			0.010848 -0.021791 -0.003894
			0.014877 -0.025327 0.009505
			0.007760 -0.023806 0.020205
			0.017067 -0.023963 -0.005128
			-0.016147 -0.025531 0.021111
			-0.019660 -0.021936 0.007035
			-0.026115 -0.030119 0.027221
			-0.022400 -0.035128 0.033122
			-0.016832 -0.026964 -0.009923
			-0.018337 -0.021573 -0.002663
			-0.026644 -0.032244 -0.007925
			-0.024226 -0.029841 -0.012080
			-0.017629 -0.029831 -0.016262
			-0.007090 -0.028057 -0.016948
			0.001391 -0.025650 -0.025381
			-0.020393 -0.027247 0.034362
			-0.008109 -0.022541 0.034342
			-0.001112 -0.020941 0.032421
			0.015434 -0.026898 0.016379
			0.007060 -0.022269 0.025947
			0.007456 -0.023226 -0.019019
			-0.003961 -0.018622 -0.006016
			-0.012674 -0.018280 -0.004205
			0.002973 -0.021066 -0.005047
			-0.010916 -0.024319 0.021078
			-0.012001 -0.017938 0.001796
			0.005181 -0.021305 -0.012271
			0.010835 -0.023133 -0.009125
					54 64 66 56 
					57 67 65 55 
					56 66 68 58 
					59 69 67 57 
					58 68 70 60 
					60 70 69 59 
					61 71 72 62 
					63 73 71 61 
					62 72 74 64 
					65 75 73 63 
					64 74 76 66 
					67 77 75 65 
					66 76 78 68 
					69 79 77 67 
					68 78 80 70 
					70 80 79 69 
					71 81 82 72 
					73 83 81 71 
					72 82 84 74 
					75 85 83 73 
					74 84 86 76 
					77 87 85 75 
					76 86 88 78 
					79 89 87 77 
					78 88 90 80 
					80 90 89 79 
					81 91 92 82 
					83 93 91 81 
					82 92 94 84 
					85 95 93 83 
					84 94 96 86 
					87 97 95 85 
					86 96 98 88 
					89 99 97 87 
					88 98 100 90 
					90 100 99 89 
					91 101 102 92 
					93 103 101 91 
					92 102 104 94 
					95 105 103 93 
					94 104 106 96 
					97 107 105 95 
					96 106 108 98 
					99 109 107 97 
					98 108 110 100 
					100 110 109 99 
					101 111 112 102 
					103 113 111 101 
					102 112 114 104 
					105 115 113 103 
					104 114 116 106 
					107 117 115 105 
					106 116 118 108 
					109 119 117 107 
					108 118 120 110 
					110 120 119 109 
					111 121 112 
					113 121 111 
					112 121 114 
					115 121 113 
					114 121 116 
					117 121 115 
					116 121 118 
					119 121 117 
					118 121 120 
					120 121 119 
				</DataArray>
				<DataArray type="Int32" Name="offsets" format="ascii">
					3 6 9 12 15 18 21 24 27 30 34 38 42 46 50 54 58 62 66 70 74 78 82 86 90 94 98 102 106 110 114 118 122 126 130 134 138 142 146 150 154 158 162 166 170 174 178 182 186 190 194 198 202 206 210 214 218 222 226 230 234 238 242 246 250 254 258 262 266 270 274 278 282 286 290 294 298 302 306 310 314 318 322 326 330 334 338 342 346 350 354 358 362 366 370 374 378 382 386 390 394 398 402 406 410 414 418 422 426 430 434 438 442 446 450 454 458 462 466 470 473 476 479 482 485 488 491 494 497 500 
				</DataArray>
			</Polys>
		</Piece>
	</PolyData>
</VTKFile>
