<?xml version="1.0"?>
<VTKFile type="PolyData" version="0.1" byte_order="LittleEndian" compressor="vtkZLibDataCompressor">
	<PolyData>
		<Piece NumberOfPoints="186" NumberOfVerts="0" NumberOfLines="0" NumberOfStrips="0" NumberOfPolys="390">
		<PointData Normals="Normals">
		<DataArray type="Float32" Name="Normals" NumberOfComponents="3" format="ascii">
			0.897620 0.424256 -0.119515
			-0.708392 -0.551951 0.439923
			0.839241 0.262135 0.476403
			0.840871 -0.315155 0.440015
			0.930197 0.234638 -0.282273
			0.406816 0.404490 -0.819078
			0.873180 0.171035 -0.456403
			0.850593 0.026061 0.525179
			-0.870070 0.159050 0.466565
			-0.814013 0.150068 0.561126
			-0.837258 -0.536988 -0.103169
			0.036950 -0.971058 0.235967
			-0.371331 -0.044197 0.927449
			-0.361319 0.280721 0.889182
			0.044149 -0.947872 0.315578
			-0.271996 -0.822655 -0.499255
			-0.116145 -0.987776 0.103962
			0.826552 -0.407831 0.387925
			0.581657 0.093940 0.807992
			0.336571 -0.898606 0.281472
			0.659773 -0.561028 0.499948
			0.957764 0.001541 -0.287554
			0.410287 0.500367 -0.762429
			-0.157383 0.404950 -0.900692
			0.344884 0.217174 -0.913176
			0.760277 0.080102 -0.644641
			0.982583 -0.041926 0.181035
			0.382194 0.041967 0.923128
			-0.918891 0.380616 -0.103792
			-0.968293 0.130371 0.213099
			-0.595233 0.119440 0.794627
			-0.799254 0.427493 -0.422426
			-0.618656 -0.416961 -0.665889
			-0.262410 -0.937148 -0.229987
			0.095638 -0.995319 0.013887
			0.622959 -0.173952 0.762668
			0.273664 -0.957418 0.091970
			-0.201660 -0.941577 0.269752
			0.353321 -0.605932 0.712748
			0.712361 -0.528696 -0.461543
			0.428906 0.175297 -0.886177
			-0.063039 0.436293 -0.897594
			-0.625268 0.186573 -0.757779
			-0.854748 0.212698 -0.473460
			-0.420252 0.213650 -0.881897
			0.318138 0.108335 -0.941834
			0.535212 0.025694 -0.844327
			0.826388 -0.001640 -0.563099
			0.272922 -0.080146 0.958692
			0.948162 -0.099313 0.301872
			-0.756939 0.387427 -0.526254
			-0.954132 0.177906 -0.240796
			-0.736719 0.039723 0.675031
			-0.997001 0.077347 -0.002341
			-0.617691 -0.681254 -0.392876
			-0.526810 -0.770110 0.359724
			0.029848 -0.991661 -0.125370
			0.494618 -0.374414 -0.784326
			-0.169164 0.143832 -0.975036
			-0.723392 0.122177 -0.679541
			-0.427625 0.081751 -0.900252
			-0.211905 0.025073 -0.976969
			0.605356 -0.024954 -0.795564
			0.892768 -0.041296 -0.448619
			-0.024976 -0.047703 0.998550
			0.713949 -0.062967 0.697361
			-0.771742 0.033773 0.635039
			-0.997638 0.066620 -0.016729
			-0.563019 -0.547746 -0.618857
			-0.097395 -0.632505 -0.768409
			-0.981978 0.035811 -0.185571
			-0.088310 -0.016408 -0.995958
			-0.851095 -0.002126 -0.525008
			0.630974 -0.045938 -0.774443
			0.899431 -0.045969 -0.434639
			-0.246632 -0.010357 0.969054
			0.931785 -0.038981 0.360911
			-0.080277 0.003607 0.996766
			-0.769099 0.014959 0.638954
			-0.941319 0.007217 0.337440
			0.286937 -0.026410 -0.957586
			-0.509416 -0.023643 -0.860196
			-0.969440 -0.030811 -0.243387
			0.740223 -0.012150 -0.672251
			0.894019 -0.018550 -0.447645
			-0.472632 0.030765 0.880723
			0.739727 -0.014302 0.672755
			-0.286308 0.025391 0.957801
			-0.779665 0.008119 0.626144
			0.551026 -0.008249 -0.834447
			-0.263400 -0.064341 -0.962538
			-0.933317 -0.075462 -0.351034
			-0.853965 -0.097891 0.511039
			0.745289 -0.012909 -0.666617
			0.970508 -0.015234 -0.240587
			0.434874 -0.022218 0.900217
			-0.267473 -0.069547 0.961052
			0.568323 -0.071961 -0.819653
			-0.187785 -0.162085 -0.968745
			-0.924653 -0.155929 -0.347423
			-0.964468 -0.077320 0.252631
			-0.655713 -0.149260 0.740109
			0.837808 -0.112309 -0.534289
			0.707249 -0.149572 0.690960
			0.007112 -0.134227 0.990925
			0.009387 -0.207625 -0.978164
			0.564178 -0.157613 -0.810470
			0.593517 -0.136801 -0.793109
			-0.821876 -0.524484 -0.222344
			-0.968791 -0.140082 0.204500
			-0.862399 -0.367790 0.347848
			-0.406465 -0.396826 0.822992
			0.994142 -0.093774 -0.053737
			0.687972 -0.126214 -0.714678
			0.067525 -0.220755 0.972989
			0.220842 -0.226705 0.948596
			0.694416 -0.110897 0.710977
			0.014589 -0.368505 0.929511
			0.139216 -0.446627 -0.883823
			0.609501 -0.134082 -0.781365
			0.743755 -0.065970 -0.665188
			-0.755473 -0.633756 0.166172
			-0.916721 -0.399191 -0.016401
			-0.806915 -0.588297 -0.052870
			-0.766892 -0.561621 -0.310576
			-0.393007 -0.566214 -0.724533
			-0.635750 -0.737086 0.229186
			-0.366184 -0.658987 0.656997
			0.808613 -0.028892 0.587631
			0.975238 0.220410 0.018198
			0.632787 -0.146906 0.760262
			0.365017 -0.131468 0.921672
			0.483686 -0.361183 -0.797242
			0.426322 0.895529 -0.127582
			0.182671 0.982976 -0.019758
			0.826106 -0.137767 -0.546416
			0.968929 0.216963 -0.118760
			-0.883692 0.466301 -0.040636
			-0.874066 0.472484 -0.112990
			-0.929054 0.369909 -0.005165
			-0.770911 -0.536622 0.343121
			-0.892457 0.395563 -0.216911
			-0.933672 0.274205 0.230365
			-0.876187 0.478511 -0.057642
			-0.678573 0.152032 -0.718628
			-0.797250 0.437150 -0.416284
			0.149852 0.318095 -0.936141
			-0.289837 0.686836 -0.666521
			-0.523673 -0.042437 0.850862
			0.093207 0.522362 0.847615
			0.911113 0.266221 0.314641
			0.896045 0.314736 0.313120
			0.580794 0.731675 0.356832
			0.732578 0.014430 -0.680531
			0.092178 0.935273 0.341713
			0.022678 0.999712 0.007808
			0.066118 0.982768 0.172616
			0.386275 0.921402 0.042536
			0.204806 0.978525 0.023320
			0.383950 0.917921 0.100021
			0.224074 0.972770 -0.059245
			0.743631 0.654312 -0.137438
			-0.415491 0.897046 0.150581
			-0.635089 0.770509 0.054575
			-0.850773 0.433153 0.297598
			-0.771254 -0.163229 0.615242
			-0.539784 0.804931 -0.246414
			-0.856463 0.205279 -0.473636
			-0.454028 0.787885 0.416048
			-0.299788 0.954002 0.002684
			-0.163674 0.960609 -0.224590
			-0.266961 0.905418 -0.330076
			0.256227 0.805876 -0.533771
			-0.531581 0.686210 0.496526
			-0.223210 0.878784 0.421802
			0.137778 0.929204 0.342925
			0.699604 0.701193 0.137414
			0.255245 0.963302 -0.083058
			0.281161 0.876784 -0.390125
			0.097052 0.992142 -0.078964
			-0.056948 0.977454 -0.203325
			0.183989 0.965243 0.185617
			-0.180339 0.971681 0.152689
			0.042693 0.998706 -0.027635
			0.120362 0.966093 -0.228425
			0.311687 0.935014 -0.169114
		</DataArray>
	</PointData>
	<Points>
		<DataArray type="Float32" NumberOfComponents="3" format="ascii">
			0.014656 -0.361501 -0.007689
			-0.014401 -0.378615 0.008269
			0.010338 -0.363436 0.004163
			0.015665 -0.374283 -0.002790
			0.016260 -0.372391 -0.013829
			0.002640 -0.360418 -0.016147
			0.011686 -0.347739 -0.005329
			0.009886 -0.347760 0.005099
			-0.011287 -0.360930 0.008013
			-0.024776 -0.371674 0.002077
			-0.025280 -0.382030 -0.003734
			-0.011942 -0.380779 0.000921
			-0.009163 -0.374491 0.021231
			-0.008716 -0.361650 0.015713
			-0.004319 -0.383591 0.018743
			-0.008727 -0.379841 0.011734
			-0.002330 -0.381091 -0.001793
			0.009292 -0.377819 0.005008
			0.001378 -0.361470 0.012894
			0.007873 -0.382844 -0.005938
			0.012911 -0.383661 -0.011798
			0.017418 -0.381353 -0.020110
			0.008096 -0.371453 -0.021254
			-0.005282 -0.358241 -0.015558
			0.002188 -0.346804 -0.011741
			0.009866 -0.310616 -0.000054
			0.011920 -0.311245 0.004997
			0.000459 -0.348052 0.012351
			-0.014026 -0.359259 -0.000725
			-0.010164 -0.346808 0.004583
			-0.007123 -0.347149 0.012009
			-0.025981 -0.375295 -0.002254
			-0.017224 -0.382377 -0.013841
			-0.021584 -0.383380 -0.008068
			-0.009093 -0.382237 -0.007796
			0.000636 -0.377988 0.018328
			0.004318 -0.384506 0.004083
			0.002896 -0.380338 -0.010700
			0.012420 -0.391664 -0.013732
			0.014379 -0.388819 -0.020834
			0.009136 -0.380620 -0.025027
			-0.002114 -0.368215 -0.023199
			-0.013030 -0.370062 -0.015278
			-0.011626 -0.358486 -0.007893
			-0.005309 -0.346820 -0.012513
			0.003066 -0.309802 -0.005644
			0.005711 -0.271875 -0.001381
			0.011612 -0.272811 0.004999
			0.004331 -0.309975 0.013480
			0.015425 -0.273492 0.011920
			-0.019437 -0.370421 -0.009037
			-0.010521 -0.346302 -0.003148
			-0.006525 -0.310279 0.011446
			-0.007217 -0.310454 0.002451
			-0.011055 -0.381415 -0.018738
			0.000509 -0.389712 -0.018738
			0.005673 -0.393971 -0.017559
			0.011341 -0.389673 -0.023748
			0.000540 -0.378822 -0.027028
			-0.004857 -0.309708 -0.006451
			-0.002239 -0.272642 -0.003599
			0.002260 -0.234927 -0.003171
			0.009260 -0.235310 0.000719
			0.015683 -0.235724 0.008334
			0.007525 -0.273405 0.015839
			0.016522 -0.236235 0.016612
			-0.003834 -0.277144 0.010700
			-0.005501 -0.274020 0.004638
			-0.005848 -0.386008 -0.024054
			0.006377 -0.389067 -0.026647
			-0.002628 -0.234240 0.003213
			0.003574 -0.201111 -0.002657
			-0.001889 -0.201309 0.002321
			0.011921 -0.200371 0.000184
			0.017510 -0.201650 0.007464
			0.007729 -0.237066 0.016552
			0.020037 -0.202025 0.015687
			0.010610 -0.201693 0.016631
			0.000427 -0.235506 0.013635
			-0.002029 -0.201942 0.011007
			0.008845 -0.162860 -0.003856
			0.001402 -0.163112 -0.001875
			-0.002276 -0.161544 0.000771
			0.013817 -0.163501 0.000699
			0.018063 -0.163802 0.006058
			0.001657 -0.201444 0.013876
			0.020407 -0.164268 0.016350
			0.008541 -0.162391 0.015358
			-0.001942 -0.162442 0.007446
			0.010421 -0.127426 -0.002810
			0.004882 -0.128390 -0.005342
			-0.004691 -0.126103 0.002419
			-0.002880 -0.126255 0.009746
			0.015773 -0.127031 0.002811
			0.021816 -0.127245 0.010118
			0.021445 -0.126254 0.014880
			0.008508 -0.125652 0.014781
			0.009505 -0.086546 -0.004994
			-0.000872 -0.087399 -0.007950
			-0.007554 -0.087060 -0.001683
			-0.006790 -0.087861 0.009060
			-0.003182 -0.087303 0.016671
			0.020886 -0.086484 0.005925
			0.021163 -0.087027 0.016463
			0.006208 -0.087075 0.018065
			-0.001024 -0.072884 -0.011474
			0.010931 -0.060527 -0.006531
			0.015479 -0.072087 0.000091
			-0.012822 -0.059754 -0.005881
			-0.008603 -0.072367 0.006008
			-0.009444 -0.058651 0.017258
			-0.004831 -0.058263 0.021631
			0.027313 -0.066578 0.009464
			0.023870 -0.069170 0.003876
			0.012761 -0.076048 0.018691
			0.015562 -0.068571 0.020870
			0.023293 -0.068999 0.017468
			0.009813 -0.055770 0.024176
			-0.002006 -0.062354 -0.014039
			0.008866 -0.050922 -0.010274
			0.020715 -0.058850 0.000036
			-0.017558 -0.046399 0.011679
			-0.025455 -0.039599 0.011588
			-0.024147 -0.047352 -0.007236
			-0.022169 -0.047520 -0.014192
			-0.014888 -0.049644 -0.022519
			-0.015812 -0.047665 0.019773
			-0.012431 -0.045080 0.029929
			0.024475 -0.059978 0.017530
			0.027008 -0.055113 0.011639
			0.019450 -0.052754 0.025031
			0.009160 -0.036497 0.036021
			-0.004966 -0.048463 -0.024761
			-0.006048 -0.020983 0.007504
			0.003337 -0.022903 0.013394
			0.018858 -0.041654 -0.005863
			0.021626 -0.045672 0.003810
			-0.026334 -0.029804 0.013288
			-0.024717 -0.026755 0.009207
			-0.027659 -0.031321 0.020469
			-0.026466 -0.042262 0.024753
			-0.022299 -0.028325 0.002894
			-0.029665 -0.039725 -0.001722
			-0.029653 -0.031001 -0.016005
			-0.023850 -0.032661 -0.027746
			-0.028956 -0.032299 -0.021686
			-0.004305 -0.027221 -0.030704
			-0.016906 -0.031483 -0.030831
			-0.016459 -0.036723 0.036678
			-0.001270 -0.028391 0.038213
			0.021454 -0.050659 0.019238
			0.017452 -0.031780 0.025789
			0.011741 -0.024951 0.028481
			0.011921 -0.033646 -0.017951
			-0.000791 -0.022569 0.000850
			-0.003941 -0.023207 0.020228
			-0.011284 -0.017999 0.006074
			-0.006781 -0.021303 -0.000263
			0.010848 -0.021791 -0.003894
			0.014877 -0.025327 0.009505
			0.007760 -0.023806 0.020205
			0.017067 -0.023963 -0.005128
			-0.016147 -0.025531 0.021111
			-0.019660 -0.021936 0.007035
			-0.026115 -0.030119 0.027221
			-0.022400 -0.035128 0.033122
			-0.016832 -0.026964 -0.009923
			-0.018337 -0.021573 -0.002663
			-0.026644 -0.032244 -0.007925
			-0.024226 -0.029841 -0.012080
			-0.017629 -0.029831 -0.016262
			-0.007090 -0.028057 -0.016948
			0.001391 -0.025650 -0.025381
			-0.020393 -0.027247 0.034362
			-0.008109 -0.022541 0.034342
			-0.001112 -0.020941 0.032421
			0.015434 -0.026898 0.016379
			0.007060 -0.022269 0.025947
			0.007456 -0.023226 -0.019019
			-0.003961 -0.018622 -0.006016
			-0.012674 -0.018280 -0.004205
			0.002973 -0.021066 -0.005047
			-0.010916 -0.024319 0.021078
			-0.012001 -0.017938 0.001796
			0.005181 -0.021305 -0.012271
			0.010835 -0.023133 -0.009125
		</DataArray>
	</Points>
			<Polys>
				<DataArray type="Int32" Name="connectivity" format="ascii">
					0 1 2 
					3 0 2 
					3 4 0 
					0 4 5 
					6 0 5 
					7 0 6 
					7 2 0 
					8 9 1 
					1 10 11 
					1 9 10 
					1 12 13 
					1 14 12 
					14 1 15 
					16 15 1 
					16 1 11 
					13 8 1 
					3 2 17 
					2 5 17 
					17 5 2 
					2 17 15 
					2 18 17 
					7 18 2 
					3 19 20 
					3 20 4 
					3 17 19 
					3 16 19 
					4 20 21 
					4 21 22 
					4 22 5 
					5 22 23 
					24 5 23 
					6 5 24 
					25 6 24 
					26 6 25 
					26 7 6 
					27 18 7 
					26 27 7 
					9 8 28 
					8 28 9 
					29 28 8 
					8 13 30 
					29 8 30 
					31 9 28 
					9 31 10 
					10 9 31 
					32 10 31 
					10 32 33 
					10 33 11 
					11 10 33 
					33 34 11 
					16 11 34 
					13 12 35 
					14 35 12 
					18 13 35 
					27 13 18 
					30 13 27 
					17 35 14 
					16 36 14 
					35 14 36 
					14 15 16 
					16 34 37 
					16 37 36 
					19 17 36 
					18 35 17 
					36 17 35 
					19 37 20 
					37 19 36 
					38 21 20 
					20 37 38 
					38 39 21 
					21 39 40 
					21 40 22 
					22 40 41 
					22 41 23 
					42 23 41 
					23 42 43 
					23 42 43 
					24 23 44 
					44 23 43 
					45 24 44 
					25 24 45 
					25 45 46 
					47 25 46 
					26 25 47 
					48 27 26 
					49 26 47 
					48 26 49 
					48 30 27 
					50 31 28 
					28 43 50 
					43 50 28 
					51 28 29 
					51 43 28 
					52 29 30 
					53 29 52 
					53 51 29 
					52 30 48 
					31 50 32 
					31 50 32 
					42 32 50 
					54 34 32 
					42 54 32 
					33 32 34 
					54 37 34 
					37 54 55 
					55 38 37 
					38 55 56 
					56 39 38 
					56 57 39 
					39 57 40 
					40 57 58 
					40 58 41 
					41 58 42 
					43 42 50 
					43 42 50 
					42 58 54 
					44 43 51 
					59 44 51 
					45 44 59 
					45 59 60 
					46 45 60 
					46 60 61 
					62 46 61 
					47 46 62 
					63 47 62 
					49 47 63 
					64 48 49 
					52 48 64 
					65 49 63 
					64 49 65 
					59 51 53 
					66 52 64 
					53 52 66 
					67 53 66 
					59 53 67 
					55 54 68 
					58 68 54 
					56 55 69 
					68 69 55 
					56 69 57 
					57 69 58 
					68 58 69 
					60 59 67 
					60 67 70 
					61 60 70 
					62 61 71 
					61 70 72 
					71 61 72 
					73 62 71 
					63 62 73 
					74 63 73 
					65 63 74 
					75 64 65 
					66 64 75 
					76 65 74 
					77 65 76 
					75 65 77 
					78 66 75 
					67 66 78 
					70 67 78 
					70 78 79 
					72 70 79 
					73 71 80 
					71 72 81 
					80 71 81 
					72 79 82 
					81 72 82 
					83 73 80 
					74 73 83 
					84 74 83 
					76 74 84 
					85 75 77 
					78 75 85 
					86 76 84 
					77 76 86 
					87 77 86 
					85 77 87 
					79 78 85 
					79 85 88 
					82 79 88 
					83 80 89 
					80 81 90 
					89 80 90 
					81 82 91 
					90 81 91 
					82 88 92 
					91 82 92 
					93 83 89 
					84 83 93 
					94 84 93 
					86 84 94 
					88 85 87 
					95 86 94 
					87 86 95 
					96 87 95 
					88 87 96 
					92 88 96 
					93 89 97 
					89 90 98 
					97 89 98 
					90 91 99 
					98 90 99 
					91 92 100 
					99 91 100 
					92 96 101 
					100 92 101 
					102 93 97 
					94 93 102 
					103 94 102 
					95 94 103 
					104 95 103 
					96 95 104 
					101 96 104 
					105 97 98 
					105 106 97 
					107 97 106 
					107 102 97 
					108 98 99 
					105 98 108 
					109 108 99 
					109 99 100 
					109 100 101 
					110 101 111 
					109 101 110 
					111 101 104 
					102 112 103 
					113 112 102 
					107 113 102 
					104 103 114 
					103 115 114 
					112 116 103 
					115 103 116 
					111 104 117 
					117 104 114 
					105 108 118 
					105 118 106 
					119 120 106 
					119 106 118 
					107 106 120 
					107 120 113 
					121 108 110 
					121 122 108 
					122 123 108 
					123 124 108 
					124 125 108 
					125 118 108 
					109 110 108 
					126 110 111 
					121 110 126 
					127 126 111 
					127 111 117 
					116 112 128 
					129 128 112 
					120 112 113 
					120 129 112 
					115 117 114 
					130 115 128 
					130 117 115 
					115 116 128 
					127 117 131 
					131 117 130 
					125 132 118 
					125 132 118 
					119 118 132 
					133 134 119 
					119 132 135 
					119 135 120 
					135 136 120 
					136 129 120 
					122 121 126 
					137 138 122 
					139 137 122 
					140 139 122 
					122 138 141 
					142 122 141 
					142 123 122 
					140 122 126 
					142 143 123 
					143 124 123 
					124 144 125 
					124 145 144 
					143 145 124 
					146 132 125 
					147 146 125 
					144 147 125 
					140 126 127 
					148 127 149 
					148 140 127 
					127 148 149 
					149 127 131 
					148 127 149 
					128 129 150 
					130 128 150 
					129 136 150 
					131 130 151 
					151 130 150 
					131 152 149 
					152 131 151 
					132 146 153 
					135 132 153 
					154 134 133 
					154 133 134 
					154 133 134 
					134 133 155 
					133 156 155 
					133 154 157 
					156 133 157 
					158 154 134 
					159 158 134 
					160 134 155 
					159 134 160 
					161 135 153 
					135 161 136 
					161 151 136 
					136 151 150 
					162 137 139 
					162 138 137 
					162 163 138 
					138 163 141 
					164 139 140 
					162 139 164 
					164 140 165 
					140 148 165 
					166 142 141 
					167 166 141 
					163 167 141 
					142 166 168 
					143 142 168 
					169 143 168 
					143 169 170 
					145 143 170 
					144 145 170 
					147 144 170 
					146 147 171 
					172 146 171 
					146 172 153 
					147 170 171 
					148 173 165 
					149 174 148 
					148 174 173 
					148 173 165 
					152 175 149 
					149 175 174 
					161 176 151 
					152 151 176 
					159 160 152 
					175 152 177 
					152 160 177 
					152 176 159 
					178 161 153 
					172 178 153 
					154 179 180 
					154 180 157 
					154 158 181 
					179 154 181 
					156 182 155 
					177 160 155 
					175 177 155 
					174 175 155 
					182 174 155 
					162 182 156 
					162 156 163 
					183 156 157 
					163 156 183 
					180 183 157 
					161 158 159 
					158 184 181 
					158 161 185 
					184 158 185 
					161 159 176 
					161 178 185 
					162 164 173 
					162 173 174 
					162 174 182 
					163 183 180 
					163 180 167 
					167 180 163 
					167 163 180 
					173 164 165 
					166 167 180 
					166 169 168 
					170 169 166 
					166 180 171 
					170 166 171 
					179 184 171 
					180 179 171 
					178 172 171 
					184 178 171 
					178 184 185 
					184 179 181 
				</DataArray>
				<DataArray type="Int32" Name="offsets" format="ascii">
					3 6 9 12 15 18 21 24 27 30 33 36 39 42 45 48 51 54 57 60 63 66 69 72 75 78 81 84 87 90 93 96 99 102 105 108 111 114 117 120 123 126 129 132 135 138 141 144 147 150 153 156 159 162 165 168 171 174 177 180 183 186 189 192 195 198 201 204 207 210 213 216 219 222 225 228 231 234 237 240 243 246 249 252 255 258 261 264 267 270 273 276 279 282 285 288 291 294 297 300 303 306 309 312 315 318 321 324 327 330 333 336 339 342 345 348 351 354 357 360 363 366 369 372 375 378 381 384 387 390 393 396 399 402 405 408 411 414 417 420 423 426 429 432 435 438 441 444 447 450 453 456 459 462 465 468 471 474 477 480 483 486 489 492 495 498 501 504 507 510 513 516 519 522 525 528 531 534 537 540 543 546 549 552 555 558 561 564 567 570 573 576 579 582 585 588 591 594 597 600 603 606 609 612 615 618 621 624 627 630 633 636 639 642 645 648 651 654 657 660 663 666 669 672 675 678 681 684 687 690 693 696 699 702 705 708 711 714 717 720 723 726 729 732 735 738 741 744 747 750 753 756 759 762 765 768 771 774 777 780 783 786 789 792 795 798 801 804 807 810 813 816 819 822 825 828 831 834 837 840 843 846 849 852 855 858 861 864 867 870 873 876 879 882 885 888 891 894 897 900 903 906 909 912 915 918 921 924 927 930 933 936 939 942 945 948 951 954 957 960 963 966 969 972 975 978 981 984 987 990 993 996 999 1002 1005 1008 1011 1014 1017 1020 1023 1026 1029 1032 1035 1038 1041 1044 1047 1050 1053 1056 1059 1062 1065 1068 1071 1074 1077 1080 1083 1086 1089 1092 1095 1098 1101 1104 1107 1110 1113 1116 1119 1122 1125 1128 1131 1134 1137 1140 1143 1146 1149 1152 1155 1158 1161 1164 1167 1170 
				</DataArray>
			</Polys>
		</Piece>
	</PolyData>
</VTKFile>
