<?xml version="1.0" encoding="utf-8"?>
<VTKFile byte_order="LittleEndian" compressor="vtkZLibDataCompressor" type="PolyData"
         version="0.1">
   <PolyData>
      <Piece NumberOfLines="0" NumberOfPoints="456" NumberOfPolys="908" NumberOfStrips="0"
             NumberOfVerts="0">
         <PointData Normals="Normals">
            <DataArray Name="Normals" NumberOfComponents="3" format="ascii" type="Float32">
-0.261491 0.594688 0.760242
0.080536 0.341305 0.936496
0.001802 0.770265 0.637722
-0.021499 0.850627 0.525330
-0.363485 0.290920 0.885011
-0.345770 0.791739 0.503580
-0.589916 0.520509 0.617308
0.294673 0.734484 0.611311
-0.281156 0.020009 0.959454
-0.049834 -0.126800 0.990676
0.294208 0.012871 0.955655
0.503436 0.221009 0.835288
0.485169 0.482857 0.729013
0.345921 0.819241 0.457365
-0.060030 0.949096 0.309212
0.286543 0.909996 0.299666
-0.626172 0.086950 0.774822
-0.390880 0.848657 0.356363
-0.641616 0.662844 0.385962
-0.807183 0.285337 0.516758
0.661767 0.557970 0.500733
-0.393325 -0.236702 0.888407
-0.019136 -0.320673 0.946997
0.384727 -0.209864 0.898856
0.600386 -0.073036 0.796368
0.740571 0.202020 0.640892
0.603183 0.752306 0.264964
-0.178313 0.981457 0.070327
0.129993 0.990705 0.040078
0.407588 0.913118 0.009411
-0.692318 -0.167745 0.701824
-0.480568 0.867476 0.128603
-0.752529 0.622662 0.214456
-0.917293 0.266887 0.295541
-0.877500 -0.126968 0.462464
0.843082 0.448514 0.296730
-0.374273 -0.430478 0.821345
0.018275 -0.517214 0.855661
0.451235 -0.446506 0.772670
0.741746 -0.213542 0.635777
0.881678 0.085763 0.463992
0.686181 0.726973 -0.025805
-0.194235 0.959109 -0.205868
-0.493977 0.854538 -0.160471
0.093216 0.965056 -0.244904
0.401454 0.864656 -0.302002
-0.634975 -0.473762 0.610210
-0.782310 0.619270 -0.067043
-0.969261 0.243692 0.033870
-0.961837 -0.196754 0.190150
-0.724241 -0.498459 0.476459
0.983050 0.084345 0.162783
0.897923 0.438573 -0.037247
-0.275622 -0.644378 0.713308
0.179437 -0.686019 0.705110
0.587405 -0.562527 0.581824
0.862532 -0.269802 0.428071
0.700688 0.623031 -0.347662
-0.497417 0.792744 -0.352326
-0.187639 0.881658 -0.432979
-0.804969 0.552242 -0.216918
0.124675 0.847234 -0.516382
0.422327 0.684092 -0.594692
-0.341981 -0.745995 0.571437
-0.976730 0.213611 -0.019218
-0.968529 -0.219517 0.117318
-0.739264 -0.618277 0.266876
-0.327919 -0.831465 0.448482
0.992782 -0.104265 -0.059262
0.921349 0.265987 -0.283490
0.156828 -0.773496 0.614092
0.566156 -0.711792 0.415715
0.864394 -0.466003 0.188852
0.658318 0.411783 -0.630121
-0.327510 0.722976 -0.608312
-0.648468 0.568321 -0.506460
-0.064896 0.716154 -0.694919
-0.857704 0.289576 -0.424841
0.224291 0.584408 -0.779847
0.429830 0.345194 -0.834318
0.101313 -0.868247 0.485678
-0.982313 0.013515 -0.186759
-0.858319 -0.502964 -0.101563
-0.529784 -0.848132 -0.000860
-0.287800 -0.952777 0.096886
0.911563 -0.270542 -0.309613
0.855486 0.077182 -0.512041
0.621683 -0.703553 0.344272
0.823470 -0.566855 0.023919
0.597854 0.009791 -0.801545
-0.330886 0.300884 -0.894418
-0.574177 0.356622 -0.736981
-0.756459 0.131916 -0.640599
-0.179531 0.242025 -0.953516
-0.880762 -0.226682 -0.415780
0.145543 0.213665 -0.966004
0.434603 -0.012704 -0.900533
-0.147174 -0.982971 0.110037
0.135287 -0.989377 0.053198
-0.723015 -0.690752 -0.010505
-0.374884 -0.911240 0.170597
-0.192345 -0.976353 0.098681
0.706708 -0.609876 -0.358630
0.725456 -0.309117 -0.614947
0.461124 -0.885561 -0.056096
0.578957 -0.346069 -0.738272
-0.663087 0.202080 -0.720749
-0.421341 0.361998 -0.831522
-0.947664 -0.069673 -0.311575
-0.091893 0.464532 -0.880776
-0.896955 -0.401038 0.186122
0.490090 0.209878 -0.846028
0.057652 -0.997899 0.029576
0.277703 -0.944416 -0.175954
-0.430022 -0.655687 0.620609
0.149734 -0.840468 0.520761
0.487159 -0.738418 -0.466278
0.817550 -0.189365 -0.543831
-0.720678 0.643725 -0.257376
-0.969378 0.234888 -0.071655
-0.043201 0.926581 -0.373606
-0.961265 -0.056251 0.269825
0.572210 0.719875 -0.392881
-0.700259 -0.195003 0.686739
0.961667 0.193115 -0.194685
0.654379 -0.743833 0.136018
0.805859 -0.513081 -0.295533
0.000231 -0.451309 0.892368
0.628216 -0.481259 0.611338
0.974209 -0.193007 -0.116898
-0.145851 0.987155 0.065211
-0.728869 0.673207 0.124668
-0.951319 0.295108 0.088898
-0.961381 0.179371 0.208742
0.519013 0.854664 -0.013260
-0.835227 0.069999 0.545432
0.870007 0.487822 -0.071541
-0.404560 -0.090469 0.910025
0.975375 -0.121857 -0.183832
0.949493 -0.305467 0.071780
0.439865 -0.374278 0.816354
0.874965 -0.264979 0.405243
0.982112 -0.169571 -0.081867
0.945732 -0.284516 -0.156977
-0.060893 0.949572 0.307580
0.537617 0.841090 0.059459
-0.380183 0.515798 0.767732
-0.730638 0.302884 0.611906
-0.632632 0.548764 0.546475
-0.776521 0.314961 0.545724
0.806706 0.528515 -0.264381
-0.763865 0.243333 0.597746
0.912706 -0.033668 -0.407228
-0.255549 0.193753 0.947182
0.946079 -0.197739 -0.256581
0.921488 -0.250648 -0.296708
0.547978 -0.281675 0.787641
0.860115 -0.175777 0.478858
0.990518 -0.073659 -0.115971
0.164688 0.905633 0.390778
0.432818 0.876742 -0.209741
0.756380 0.345204 -0.555629
0.428279 0.337594 0.838217
0.196508 -0.127384 0.972193
0.142483 0.327131 0.934175
-0.264765 0.414281 0.870787
-0.647359 0.318294 0.692542
0.855553 -0.054539 -0.514835
-0.539535 0.551969 0.635792
-0.467636 0.645749 0.603593
0.946419 -0.090577 -0.309978
0.894906 -0.176264 -0.409970
0.196620 0.296361 0.934618
0.913786 -0.171753 -0.368098
0.933599 -0.126200 -0.335361
0.613672 -0.244079 0.750888
0.521684 -0.163010 0.837421
0.926475 -0.009818 0.376229
0.237521 0.955442 -0.175256
0.418938 0.358342 -0.834315
0.664550 0.023498 -0.746874
0.137739 0.899362 0.414942
0.072919 0.129094 0.988948
-0.194807 0.103127 0.975405
-0.550872 0.087722 0.829967
-0.719332 0.067204 0.691408
-0.836378 0.378026 0.396949
0.875704 -0.240341 -0.418783
0.835206 -0.096955 -0.541323
-0.621842 0.558521 0.548969
-0.222881 0.249142 0.942471
0.982376 0.135850 -0.128386
0.911286 0.040918 -0.409737
0.860480 -0.099890 -0.499596
0.627229 -0.204259 0.751573
0.985605 -0.003056 0.169039
0.543883 -0.314258 0.778096
0.345102 -0.140170 0.928039
0.557485 -0.000953 0.830186
-0.016684 0.672416 -0.739985
-0.346658 0.904563 -0.248179
0.250623 0.241522 -0.937473
0.582226 0.190640 -0.790361
-0.794510 0.576462 0.190905
-0.878558 0.016084 0.477366
-0.938318 -0.037333 0.343752
-0.929345 -0.219192 0.297106
-0.961480 -0.230717 0.149418
-0.997214 0.021301 0.071484
0.640973 -0.349335 -0.683461
0.741145 -0.158922 -0.652264
-0.689605 -0.208449 0.693537
0.296046 -0.488756 0.820655
0.980419 0.168221 -0.102373
0.894099 0.157254 -0.419354
0.728210 -0.018430 -0.685106
0.552984 -0.436744 0.709551
0.862087 0.069851 0.501923
0.202459 -0.264249 0.942965
0.412245 -0.058501 0.909193
-0.082868 0.428138 -0.899906
-0.522019 0.567756 -0.636514
-0.871786 0.364987 -0.326761
0.251348 0.206846 -0.945536
-0.990566 0.077776 -0.112823
-0.966066 -0.076525 -0.246699
-0.913221 -0.267192 -0.307630
-0.927941 -0.355117 -0.113215
-0.932024 -0.354171 0.076771
-0.933521 -0.313732 -0.173524
-0.900257 -0.433552 0.039627
0.259064 -0.403444 -0.877564
0.337104 -0.336443 -0.879299
-0.330357 -0.773500 0.540890
0.121825 -0.699179 0.704490
0.951214 0.176415 -0.253119
0.904180 0.142975 0.402512
0.780418 0.071036 -0.621210
0.596928 0.005425 -0.802276
0.223175 -0.129637 -0.966120
0.387810 -0.031418 0.921204
-0.144283 -0.309167 0.939999
-0.322818 0.186343 -0.927936
-0.677547 0.146675 -0.720706
-0.829877 0.053923 -0.555335
-0.164727 -0.298401 -0.940118
-0.817085 -0.207138 -0.538020
-0.869764 -0.437579 -0.228113
-0.749019 -0.307494 -0.586871
-0.679926 -0.330564 -0.654544
-0.907803 -0.417885 0.035583
-0.618373 -0.740612 0.262885
-0.216310 -0.386230 -0.896681
0.893157 0.168960 -0.416801
0.896556 0.210096 0.389932
0.361847 0.081016 0.928710
0.020722 -0.098689 -0.994903
0.561636 0.058371 -0.825322
-0.340820 -0.213472 -0.915572
-0.408990 -0.147235 0.900583
-0.672134 -0.354247 0.650189
-0.531189 -0.213584 -0.819890
-0.631357 -0.285644 -0.720969
-0.896757 -0.245071 0.368466
-0.822669 -0.253891 -0.508680
0.766772 0.149214 -0.624336
0.958777 0.206553 0.195145
0.107671 0.067321 0.991905
-0.102720 -0.084595 -0.991107
0.037034 -0.060121 -0.997504
-0.827573 -0.182006 0.531033
-0.866966 -0.260179 -0.425061
0.663038 0.081306 -0.744157
0.980104 0.190551 0.055562
0.200263 0.114725 0.973002
-0.813169 -0.112362 0.571079
-0.165647 -0.149629 -0.974768
-0.917077 -0.251846 -0.309100
0.651453 0.008028 -0.758647
0.985762 0.132194 0.103915
0.230590 0.099625 0.967938
-0.831552 -0.070904 0.550902
-0.947629 -0.181463 -0.262811
-0.293201 -0.156677 -0.943125
0.674489 -0.015846 -0.738115
0.960117 0.122492 0.251338
0.103919 0.126513 0.986507
-0.858622 -0.011463 0.512481
-0.943966 -0.126919 -0.304663
-0.323975 -0.142214 -0.935316
0.694622 -0.041640 -0.718168
0.964716 0.094431 0.245777
0.133284 0.126939 0.982915
-0.847722 0.019813 0.530071
-0.930009 -0.088763 -0.356659
-0.273328 -0.143887 -0.951098
0.568713 -0.092715 -0.817294
0.989318 0.037496 0.140871
0.203006 0.148306 0.967881
-0.786299 0.078151 0.612884
-0.952218 -0.018988 -0.304829
-0.307225 -0.101487 -0.946210
0.029685 -0.087777 -0.995698
0.813884 -0.065576 -0.577315
0.970754 0.016702 0.239496
0.323498 0.148454 0.934511
-0.620309 0.120937 0.774978
-0.987900 0.047387 0.147672
-0.693128 -0.033588 -0.720032
-0.079809 -0.053645 -0.995366
0.730497 -0.080354 -0.678172
0.991238 -0.011776 0.131564
0.440450 0.163378 0.882786
-0.638088 0.191800 0.745692
-0.957516 0.088180 0.274568
-0.826526 0.046376 -0.560984
-0.105123 0.088624 -0.990502
0.668166 0.003549 -0.744004
0.984896 -0.031217 0.170307
0.655447 0.165326 0.736924
-0.526182 0.384298 0.758583
-0.962664 0.168434 0.211916
-0.940786 0.193792 -0.278150
-0.603696 0.536008 -0.590124
0.197926 0.241797 -0.949926
0.874792 0.244276 -0.418412
0.965569 0.140500 0.218945
0.800542 0.161667 0.577059
-0.029579 0.540891 0.840572
-0.906211 0.367711 0.208734
-0.926382 0.355536 0.124140
0.128323 0.407512 -0.904139
-0.432913 0.790988 -0.432347
-0.632234 0.738795 0.233372
0.412952 0.199877 -0.888549
0.819577 0.179284 -0.544197
0.980842 0.104924 0.164133
0.979576 0.142384 0.141977
0.822034 0.302923 0.482180
0.142688 0.695410 0.704305
0.720475 0.424904 0.548063
-0.852438 0.514110 0.095083
-0.798028 0.599380 0.062415
-0.763295 0.632872 0.129823
-0.393313 0.684931 -0.613331
0.042985 0.344261 -0.937890
0.319129 0.040561 -0.946843
-0.517511 0.807998 0.281642
-0.641808 0.600348 0.477143
0.417315 -0.050677 -0.907348
0.909884 -0.132893 -0.393002
0.919299 -0.317031 0.233198
0.955967 -0.275303 -0.101667
0.996729 0.066583 0.045813
0.824255 0.191117 0.532990
0.734795 0.230154 0.638048
0.704022 0.016597 0.709985
0.363191 0.150699 0.919447
-0.255564 0.696544 0.670458
-0.608865 0.776567 0.161949
-0.586503 0.798479 -0.135814
-0.874673 0.483055 0.040062
-0.361709 0.129398 -0.923267
-0.680934 0.522324 -0.513329
-0.779029 0.626735 -0.017786
-0.058361 -0.212455 -0.975427
0.229220 -0.276080 -0.933402
-0.561192 0.200691 0.802986
-0.715720 0.437285 0.544543
-0.955854 -0.238729 0.171322
0.267904 -0.217028 -0.938683
0.405175 -0.183231 -0.895689
0.824168 -0.528380 -0.203867
0.736000 -0.619969 0.271924
0.732861 -0.656691 -0.177967
0.748786 -0.379931 -0.543113
0.963385 -0.202814 0.175372
0.784645 -0.022985 0.619519
0.763106 0.031070 0.645527
0.610860 -0.202051 0.765523
0.256043 -0.121217 0.959035
-0.274930 0.194311 0.941624
-0.464580 0.744362 0.479677
-0.257614 0.962470 0.085358
-0.304962 0.869490 -0.388569
-0.637838 0.389982 -0.664137
-0.674651 0.042659 -0.736903
-0.309275 -0.139096 -0.940745
-0.974788 0.213043 -0.066334
-0.917624 0.039633 0.395469
-0.086289 -0.157910 -0.983676
0.149837 -0.219660 -0.964001
-0.514602 -0.249746 0.820251
-0.541898 -0.151019 0.826764
-0.911206 -0.401939 -0.090271
-0.563968 -0.074166 -0.822459
0.236271 -0.242893 -0.940840
0.429267 -0.672291 -0.603120
0.488615 -0.860537 0.143988
0.364479 -0.906345 0.213761
0.315225 -0.835102 -0.450819
0.667571 -0.696629 -0.262787
0.748279 -0.099234 0.655921
0.682002 -0.136847 0.718433
0.525115 -0.270636 0.806852
0.242453 -0.255318 0.935964
-0.180093 -0.022591 0.983390
-0.695472 0.160330 0.700437
-0.634308 0.762058 -0.130080
-0.505313 0.342637 -0.791997
-0.847730 -0.319270 -0.423580
-0.557615 -0.405069 -0.724558
-0.862147 -0.442858 0.246129
-0.637459 -0.598751 0.484916
-0.133630 -0.652197 -0.746178
0.171069 -0.674443 -0.718235
-0.361615 -0.535886 0.762929
-0.486903 -0.234281 -0.841450
-0.445025 -0.492660 -0.747822
-0.569909 -0.775635 -0.271282
-0.388133 -0.792595 0.470262
-0.629390 -0.236008 -0.740384
0.165249 -0.971204 -0.171626
0.170678 -0.967746 0.185303
-0.042601 -0.972351 -0.229604
-0.069554 -0.922806 0.378933
0.275390 -0.890944 -0.361080
0.071385 -0.838464 -0.540262
0.623353 -0.657996 0.422459
0.560971 -0.126073 0.818179
0.432441 -0.282113 0.856392
0.238002 -0.273281 0.932026
-0.131094 -0.181175 0.974674
-0.769722 -0.385874 0.508556
-0.981272 0.074660 -0.177568
-0.605701 -0.767033 0.211628
-0.426410 -0.904520 0.004301
-0.418906 -0.783823 0.458409
-0.092421 -0.994825 -0.042214
-0.164714 -0.827014 0.537510
-0.553066 -0.561434 -0.615556
-0.373460 -0.687907 -0.622344
-0.284494 -0.697075 -0.658141
-0.860731 -0.470662 -0.193955
-0.051092 -0.975455 0.214192
0.148059 -0.985985 -0.076890
-0.114000 -0.863752 -0.490853
0.409762 -0.459286 0.788132
0.031087 -0.471463 0.881338
-0.519429 -0.630680 0.576572
-0.710903 -0.702470 0.033951
-0.249898 -0.920025 0.301837
-0.519729 -0.807177 -0.279903
-0.217718 -0.969229 -0.114864
-0.024340 -0.900412 0.434357
-0.382915 -0.901852 0.200099
</DataArray>
         </PointData>
         <Points>
            <DataArray NumberOfComponents="3" format="ascii" type="Float32">	-0.006220 0.013184 0.018358
0.004593 0.007527 0.020042
-0.000532 0.016139 0.016130
-0.000336 0.018791 0.012683
-0.009457 0.006198 0.020499
-0.006400 0.016427 0.014658
-0.012169 0.010309 0.017104
0.006878 0.015985 0.014935
-0.006295 -0.002248 0.022732
0.002434 -0.006719 0.022389
0.010795 -0.001092 0.020975
0.014787 0.003971 0.016414
0.012935 0.012262 0.014150
0.011570 0.015828 0.011034
-0.001321 0.021268 0.006915
0.007898 0.019617 0.006382
-0.013294 0.001649 0.019589
-0.008269 0.019174 0.009086
-0.014175 0.013945 0.011670
-0.017177 0.005717 0.015024
0.017798 0.010248 0.009857
-0.008221 -0.005554 0.021283
0.002125 -0.009685 0.021431
0.010934 -0.006951 0.020059
0.016352 -0.003310 0.016372
0.018925 0.001737 0.013255
0.015110 0.015936 0.004800
-0.002766 0.022356 0.001336
0.003152 0.022189 -0.000480
0.009606 0.020045 -0.001710
-0.014676 -0.004448 0.018202
-0.009559 0.020299 0.003464
-0.015994 0.015579 0.006011
-0.020354 0.006722 0.009609
-0.019382 -0.002215 0.013425
0.020360 0.009558 0.003381
-0.007446 -0.010647 0.019900
0.002880 -0.012566 0.019900
0.011785 -0.010740 0.017664
0.018681 -0.006087 0.012684
0.022539 0.001181 0.006013
0.016697 0.015141 -0.002980
-0.005144 0.021763 -0.004117
-0.011701 0.019690 -0.002757
0.001122 0.021799 -0.006340
0.007211 0.019963 -0.008396
-0.013799 -0.010138 0.016345
-0.017637 0.014994 -0.000238
-0.021992 0.006713 0.003923
-0.021732 -0.003672 0.008035
-0.016159 -0.011757 0.012363
0.023634 -0.000593 0.002675
0.021242 0.009068 -0.002507
-0.005684 -0.014273 0.017792
0.003987 -0.016526 0.016613
0.014442 -0.013078 0.013134
0.020363 -0.008886 0.008207
0.015118 0.013510 -0.010750
-0.014127 0.016930 -0.007135
-0.006875 0.019598 -0.009798
-0.020210 0.011329 -0.002770
0.000780 0.018950 -0.012860
0.007830 0.015155 -0.015598
-0.007441 -0.016077 0.015376
-0.023306 0.001440 0.000986
-0.021484 -0.007730 0.005405
-0.014507 -0.014447 0.012579
-0.004803 -0.017973 0.014277
0.022858 -0.004463 -0.003561
0.020183 0.005660 -0.009742
0.003561 -0.018391 0.014603
0.014365 -0.015924 0.009393
0.021333 -0.010375 0.002984
0.013043 0.009672 -0.016885
-0.007825 0.016971 -0.013855
-0.014452 0.014922 -0.010950
-0.002235 0.015703 -0.017425
-0.020264 0.009101 -0.007284
0.002382 0.013620 -0.019129
0.006557 0.008407 -0.020788
0.006741 -0.019434 0.011513
-0.023737 0.000916 -0.003367
-0.022690 -0.006740 0.001089
-0.015898 -0.014000 0.006373
-0.006904 -0.017628 0.009547
0.019791 -0.004898 -0.011741
0.017620 0.001844 -0.015628
0.014941 -0.017508 0.002516
0.019499 -0.012605 -0.004509
0.011928 -0.000294 -0.020439
-0.008699 0.012399 -0.017594
-0.015624 0.010966 -0.013761
-0.019875 0.004224 -0.009930
-0.002882 0.010158 -0.021207
-0.021365 -0.003455 -0.007681
0.003277 0.005838 -0.022466
0.006035 -0.001622 -0.022847
0.001369 -0.019854 0.008474
0.007159 -0.020578 0.005694
-0.018103 -0.012151 -0.000548
-0.010557 -0.016535 0.002946
-0.003092 -0.019134 0.003182
0.016347 -0.015585 -0.007753
0.015219 -0.007322 -0.016499
0.013394 -0.018803 -0.001025
0.009532 -0.009170 -0.019265
-0.014985 -0.001131 -0.014889
-0.008417 0.003972 -0.017221
-0.018684 -0.009226 -0.011346
-0.003230 0.001635 -0.020710
-0.015983 -0.016595 -0.005795
0.002582 -0.001901 -0.023811
0.003293 -0.019562 0.000540
0.008728 -0.018856 -0.005365
-0.010016 -0.020583 -0.003224
-0.001066 -0.021741 -0.005516
0.010683 -0.015570 -0.013661
0.005779 -0.009178 -0.021690
-0.015112 -0.007071 -0.023783
-0.019164 -0.014930 -0.019221
-0.008003 -0.002845 -0.026881
-0.017507 -0.020995 -0.013256
-0.001388 -0.006170 -0.030129
-0.015020 -0.027079 -0.010255
0.001607 -0.013843 -0.030065
0.005593 -0.019444 -0.011405
0.006851 -0.015037 -0.016976
-0.009799 -0.029968 -0.009208
-0.003165 -0.030710 -0.012987
0.001514 -0.021116 -0.027604
-0.010840 -0.003514 -0.033046
-0.016320 -0.008552 -0.028537
-0.019837 -0.016777 -0.023695
-0.020400 -0.024797 -0.019633
-0.005327 -0.005646 -0.036960
-0.017991 -0.032996 -0.012930
-0.000580 -0.010056 -0.038452
-0.015121 -0.035482 -0.010573
0.001714 -0.016205 -0.038769
0.000849 -0.027867 -0.022478
-0.005810 -0.038848 -0.015436
-0.000755 -0.037783 -0.022359
-0.001263 -0.031797 -0.031018
-0.000526 -0.022204 -0.035924
-0.012405 -0.002160 -0.039417
-0.007149 -0.003579 -0.042299
-0.019725 -0.006666 -0.035362
-0.021605 -0.014705 -0.034940
-0.022951 -0.023270 -0.029306
-0.023485 -0.032753 -0.020864
-0.003114 -0.007184 -0.044979
-0.021118 -0.039842 -0.015630
-0.002122 -0.012246 -0.046059
-0.018621 -0.044270 -0.011059
-0.004020 -0.028141 -0.038982
-0.003660 -0.019075 -0.043896
-0.010186 -0.045956 -0.015731
-0.002047 -0.045217 -0.023374
-0.002672 -0.037290 -0.032348
-0.016334 -0.000185 -0.043820
-0.010995 -0.000458 -0.048771
-0.007397 -0.006713 -0.050867
-0.027116 -0.001294 -0.031980
-0.029094 -0.010473 -0.035888
-0.029943 -0.019882 -0.034447
-0.030735 -0.026992 -0.028370
-0.028733 -0.034782 -0.024848
-0.006905 -0.016188 -0.050576
-0.025554 -0.042840 -0.018579
-0.023663 -0.047273 -0.014069
-0.007192 -0.032824 -0.044015
-0.008063 -0.025609 -0.047562
-0.021058 -0.050208 -0.008080
-0.002729 -0.047286 -0.033292
-0.005106 -0.039907 -0.038449
-0.016484 -0.052090 -0.013963
-0.006291 -0.053330 -0.020678
-0.001361 -0.051087 -0.026923
-0.016993 0.000821 -0.048359
-0.010783 -0.008471 -0.053672
-0.009622 -0.018602 -0.052771
-0.027497 0.001919 -0.034016
-0.033783 -0.001817 -0.028115
-0.036167 -0.015979 -0.031221
-0.036177 -0.026795 -0.028653
-0.034373 -0.037142 -0.027233
-0.030989 -0.044783 -0.020559
-0.010392 -0.036131 -0.048376
-0.010135 -0.028437 -0.052811
-0.030057 -0.049911 -0.010776
-0.026417 -0.053142 -0.005905
-0.001916 -0.053681 -0.032316
-0.004949 -0.049607 -0.038917
-0.008012 -0.042985 -0.044430
-0.020949 -0.055407 -0.007635
-0.001310 -0.056425 -0.026094
-0.018439 -0.056671 -0.014220
-0.011813 -0.057805 -0.018961
-0.006188 -0.058330 -0.021299
-0.020959 -0.001010 -0.051514
-0.030934 0.001581 -0.039865
-0.017037 -0.010210 -0.055748
-0.015465 -0.019462 -0.057340
-0.037757 -0.000632 -0.031561
-0.040023 -0.016855 -0.032726
-0.041069 -0.026253 -0.032925
-0.039805 -0.035684 -0.033092
-0.032439 -0.046774 -0.028122
-0.032362 -0.053285 -0.013742
-0.014995 -0.037517 -0.052757
-0.014063 -0.029616 -0.057498
-0.028624 -0.056480 -0.007519
-0.022402 -0.059162 -0.008672
-0.001298 -0.059769 -0.034216
-0.005987 -0.054362 -0.042724
-0.012188 -0.048314 -0.048316
-0.018596 -0.060821 -0.016764
0.000055 -0.062545 -0.028141
-0.011690 -0.063489 -0.019808
-0.004043 -0.064143 -0.022432
-0.024236 -0.005474 -0.053063
-0.036402 -0.003119 -0.044737
-0.039923 -0.006732 -0.037760
-0.020643 -0.017544 -0.060197
-0.041099 -0.014812 -0.039057
-0.041076 -0.025665 -0.041059
-0.038945 -0.034350 -0.041197
-0.034196 -0.051227 -0.036200
-0.028414 -0.061687 -0.033290
-0.029045 -0.058539 -0.025567
-0.031774 -0.060126 -0.015151
-0.019907 -0.038934 -0.053913
-0.018092 -0.028853 -0.060532
-0.027477 -0.061731 -0.009701
-0.019872 -0.065787 -0.019165
-0.000907 -0.067064 -0.037932
0.000755 -0.069012 -0.028053
-0.007043 -0.065379 -0.045055
-0.011644 -0.064257 -0.049165
-0.017656 -0.047374 -0.051820
-0.005328 -0.070067 -0.022076
-0.013572 -0.068505 -0.020396
-0.027013 -0.018271 -0.058271
-0.035310 -0.016633 -0.053000
-0.038889 -0.018653 -0.047365
-0.025034 -0.031677 -0.058179
-0.037812 -0.028027 -0.048953
-0.029367 -0.062972 -0.040798
-0.032008 -0.054841 -0.043234
-0.034885 -0.041178 -0.046169
-0.024343 -0.073055 -0.035461
-0.025829 -0.065784 -0.023176
-0.026123 -0.042328 -0.051658
0.003823 -0.083227 -0.036026
0.004163 -0.083192 -0.028600
-0.001659 -0.084339 -0.023210
-0.017833 -0.065183 -0.050301
-0.004887 -0.083188 -0.045636
-0.024188 -0.052531 -0.049588
-0.010638 -0.084976 -0.023531
-0.013737 -0.076205 -0.023227
-0.032005 -0.030727 -0.054840
-0.025194 -0.064192 -0.046427
-0.017247 -0.088193 -0.030868
-0.019166 -0.086070 -0.045584
0.007025 -0.114486 -0.042229
0.010110 -0.107067 -0.030599
0.003972 -0.112732 -0.021062
-0.013254 -0.085254 -0.050009
-0.005374 -0.115274 -0.048518
-0.009216 -0.114541 -0.028044
-0.011241 -0.116782 -0.045063
0.013318 -0.145499 -0.042147
0.018616 -0.143040 -0.030923
0.010477 -0.143244 -0.017959
-0.000696 -0.146370 -0.024919
0.003767 -0.147592 -0.044871
-0.002980 -0.148854 -0.039137
0.019786 -0.178130 -0.039695
0.024189 -0.175241 -0.029220
0.016202 -0.174877 -0.016004
0.004485 -0.174943 -0.022525
0.003164 -0.177345 -0.034377
0.009254 -0.176705 -0.041879
0.023090 -0.206109 -0.036909
0.027190 -0.204134 -0.022858
0.016550 -0.204329 -0.014004
0.008169 -0.206601 -0.019825
0.007317 -0.207898 -0.031485
0.013261 -0.207757 -0.038603
0.027048 -0.241493 -0.032453
0.030323 -0.239668 -0.019707
0.020778 -0.238701 -0.010212
0.011030 -0.239181 -0.015323
0.009949 -0.242253 -0.027149
0.017291 -0.242383 -0.034675
0.029774 -0.274394 -0.027108
0.032558 -0.272749 -0.016280
0.022907 -0.270596 -0.006183
0.011962 -0.272318 -0.011648
0.011504 -0.274920 -0.024840
0.019232 -0.276234 -0.030318
0.019874 -0.306927 -0.026968
0.027488 -0.306583 -0.025268
0.032426 -0.304924 -0.010958
0.025793 -0.303563 -0.001777
0.016282 -0.303441 -0.004252
0.010155 -0.304750 -0.012846
0.012092 -0.306793 -0.023582
0.018279 -0.340063 -0.024412
0.029111 -0.340397 -0.021943
0.032454 -0.341079 -0.007866
0.024526 -0.338339 0.004089
0.014930 -0.336956 0.001515
0.010015 -0.337704 -0.008543
0.009368 -0.339097 -0.020218
0.015744 -0.366965 -0.024240
0.030012 -0.369812 -0.018565
0.029654 -0.368124 -0.002275
0.025130 -0.365087 0.008224
0.014357 -0.362314 0.010080
0.008141 -0.367492 -0.006186
0.006516 -0.366599 -0.020477
0.002655 -0.379981 -0.023009
0.015523 -0.381394 -0.025617
0.029925 -0.386391 -0.020785
0.029547 -0.384766 0.000447
0.022030 -0.377881 0.013768
0.012115 -0.375266 0.018196
0.008116 -0.377884 0.009247
0.006616 -0.380674 -0.003266
0.011980 -0.394159 -0.031420
-0.002897 -0.386977 -0.028552
-0.000454 -0.386982 -0.014488
0.022959 -0.397253 -0.028606
0.035306 -0.397072 -0.021105
0.032968 -0.395633 -0.008448
0.031145 -0.395746 0.001877
0.027072 -0.390989 0.013137
0.006791 -0.387902 0.033406
0.020784 -0.387953 0.020689
0.011160 -0.382117 0.023459
0.004383 -0.386023 0.013469
0.003587 -0.387849 -0.000222
-0.009434 -0.391673 -0.029127
0.002353 -0.398568 -0.036067
0.010398 -0.402182 -0.034107
-0.009795 -0.390173 -0.014384
-0.006731 -0.392187 -0.009106
0.021525 -0.404413 -0.029318
0.035446 -0.405787 -0.021325
0.032663 -0.405177 -0.008789
0.030062 -0.406264 0.000232
0.032818 -0.405157 0.007829
0.025956 -0.399818 0.018001
0.019136 -0.394624 0.027519
0.017446 -0.402156 0.030315
0.011730 -0.397800 0.036877
0.002937 -0.393959 0.037526
-0.000852 -0.391272 0.025995
-0.001801 -0.392515 0.016571
-0.002039 -0.394480 0.001938
-0.009767 -0.402873 -0.035207
-0.016769 -0.397147 -0.027677
-0.017997 -0.395692 -0.022044
-0.002143 -0.406302 -0.037033
0.007871 -0.408459 -0.034121
-0.011068 -0.400730 -0.006348
-0.016787 -0.397566 -0.012051
-0.002281 -0.400084 0.001555
0.017481 -0.411851 -0.029677
0.024589 -0.413262 -0.027714
0.031195 -0.414066 -0.022521
0.029754 -0.413497 -0.010670
0.025460 -0.412837 -0.000033
0.029709 -0.413635 0.006108
0.033345 -0.414184 0.010227
0.029794 -0.410377 0.016316
0.024650 -0.407569 0.021375
0.015140 -0.409293 0.030919
0.006830 -0.402541 0.038298
-0.007303 -0.397547 0.036054
-0.015521 -0.394175 0.027941
-0.003647 -0.393526 0.028425
-0.010118 -0.392991 0.018940
-0.008083 -0.398395 0.013016
-0.021165 -0.406397 -0.029793
-0.012553 -0.410420 -0.030597
-0.022408 -0.404588 -0.023297
-0.020512 -0.405620 -0.013998
-0.006449 -0.413673 -0.032330
0.003243 -0.416680 -0.031912
-0.002882 -0.408422 -0.006231
-0.016366 -0.408881 -0.008787
0.004058 -0.410535 0.001843
-0.001044 -0.408861 0.009405
0.016771 -0.417675 -0.028481
0.023161 -0.421217 -0.025633
0.022884 -0.421138 -0.014379
0.019261 -0.417790 -0.004385
0.020794 -0.418748 0.004095
0.029071 -0.420928 0.011581
0.027465 -0.417050 0.018789
0.021598 -0.413145 0.022962
0.012713 -0.414202 0.031252
0.002472 -0.411800 0.036440
-0.007632 -0.409205 0.036730
-0.020658 -0.408592 0.033736
-0.017667 -0.395899 0.020933
-0.016816 -0.403420 0.013198
-0.021244 -0.413129 -0.028080
-0.015779 -0.417373 -0.031837
-0.021820 -0.410716 -0.019655
-0.014973 -0.415510 -0.012463
-0.007523 -0.422437 -0.032296
0.005837 -0.423079 -0.029917
-0.005442 -0.416331 -0.007583
-0.013221 -0.415616 0.014291
-0.004487 -0.422012 0.013927
0.007255 -0.416320 0.001125
0.007211 -0.417681 -0.005644
-0.018287 -0.409922 0.014403
0.013777 -0.423537 -0.025725
0.014433 -0.424549 -0.017703
0.013143 -0.418346 0.000209
0.012486 -0.421127 -0.009177
0.019347 -0.425500 0.012975
0.014155 -0.421520 0.005391
0.022154 -0.425019 0.022274
0.017173 -0.418753 0.025937
0.009566 -0.420713 0.029919
0.003233 -0.417783 0.034554
-0.007621 -0.415450 0.036092
-0.018097 -0.414535 0.033884
-0.022322 -0.403616 0.021101
-0.014324 -0.419420 -0.018578
-0.011563 -0.421864 -0.024560
-0.009423 -0.419038 -0.012840
-0.000728 -0.424582 -0.023307
0.001318 -0.420799 -0.010887
-0.014416 -0.420856 0.018401
-0.003730 -0.426432 0.016147
0.006343 -0.421611 0.007606
-0.020977 -0.415899 0.023124
0.006280 -0.424557 -0.017171
0.009081 -0.430285 0.021312
0.004537 -0.429129 0.015807
0.011900 -0.427962 0.028185
-0.004435 -0.425101 0.034302
-0.013769 -0.422733 0.031571
-0.015841 -0.422242 0.024399
-0.004460 -0.422900 -0.017036
-0.008972 -0.426934 0.021198
-0.001631 -0.429478 0.020925
0.001302 -0.428160 0.031677
-0.008172 -0.427189 0.027455
</DataArray>
         </Points>
         <Polys>
            <DataArray Name="connectivity" format="ascii" type="Int32">