<?xml version="1.0" encoding="utf-8"?>
<VTKFile byte_order="LittleEndian" compressor="vtkZLibDataCompressor" type="PolyData"
         version="0.1">
   <PolyData>
      <Piece NumberOfLines="0" NumberOfPoints="456" NumberOfPolys="908" NumberOfStrips="0"
             NumberOfVerts="0">
         <PointData Normals="Normals">
            <DataArray Name="Normals" NumberOfComponents="3" format="ascii" type="Float32">
0.001802 0.770265 -0.637722
0.080536 0.341305 -0.936496
-0.261491 0.594688 -0.760242
0.294673 0.734484 -0.611311
-0.021499 0.850627 -0.525330
0.345921 0.819241 -0.457365
-0.363485 0.290920 -0.885011
-0.281156 0.020009 -0.959454
-0.049834 -0.126800 -0.990676
0.294208 0.012871 -0.955655
0.503436 0.221009 -0.835288
0.485169 0.482857 -0.729013
-0.345770 0.791739 -0.503580
-0.589916 0.520509 -0.617308
0.661767 0.557970 -0.500733
-0.060030 0.949096 -0.309212
0.286543 0.909996 -0.299666
0.603183 0.752306 -0.264964
-0.626172 0.086950 -0.774822
-0.393325 -0.236702 -0.888407
-0.019136 -0.320673 -0.946997
0.384727 -0.209864 -0.898856
0.600386 -0.073036 -0.796368
0.740571 0.202020 -0.640892
-0.390880 0.848657 -0.356363
-0.641616 0.662844 -0.385962
-0.807183 0.285337 -0.516758
0.843082 0.448514 -0.296730
-0.178313 0.981457 -0.070327
0.129993 0.990705 -0.040078
0.407588 0.913118 -0.009411
0.686181 0.726973 0.025805
-0.692318 -0.167745 -0.701824
-0.374273 -0.430478 -0.821345
0.018275 -0.517214 -0.855661
0.451235 -0.446506 -0.772670
0.741746 -0.213542 -0.635777
0.881678 0.085763 -0.463992
-0.480568 0.867476 -0.128603
-0.752529 0.622662 -0.214456
-0.917293 0.266887 -0.295541
-0.877500 -0.126968 -0.462464
0.983050 0.084345 -0.162783
0.897923 0.438573 0.037247
-0.493977 0.854538 0.160471
-0.194235 0.959109 0.205868
0.093216 0.965056 0.244904
0.401454 0.864656 0.302002
0.700688 0.623031 0.347662
-0.634975 -0.473762 -0.610210
-0.275622 -0.644378 -0.713308
0.179437 -0.686019 -0.705110
0.587405 -0.562527 -0.581824
0.862532 -0.269802 -0.428071
-0.782310 0.619270 0.067043
-0.969261 0.243692 -0.033870
-0.961837 -0.196754 -0.190150
-0.724241 -0.498459 -0.476459
0.992782 -0.104265 0.059262
0.921349 0.265987 0.283490
-0.497417 0.792744 0.352326
-0.804969 0.552242 0.216918
-0.187639 0.881658 0.432979
0.124675 0.847234 0.516382
0.422327 0.684092 0.594692
0.658318 0.411783 0.630121
-0.341981 -0.745995 -0.571437
0.156828 -0.773496 -0.614092
0.566156 -0.711792 -0.415715
0.864394 -0.466003 -0.188852
-0.976730 0.213611 0.019218
-0.968529 -0.219517 -0.117318
-0.739264 -0.618277 -0.266876
-0.327919 -0.831465 -0.448482
0.911563 -0.270542 0.309613
0.855486 0.077182 0.512041
-0.327510 0.722976 0.608312
-0.648468 0.568321 0.506460
-0.857704 0.289576 0.424841
-0.064896 0.716154 0.694919
0.224291 0.584408 0.779847
0.429830 0.345194 0.834318
0.597854 0.009791 0.801545
0.101313 -0.868247 -0.485678
0.621683 -0.703553 -0.344272
0.823470 -0.566855 -0.023919
-0.982313 0.013515 0.186759
-0.858319 -0.502964 0.101563
-0.529784 -0.848132 0.000860
-0.287800 -0.952777 -0.096886
0.706708 -0.609876 0.358630
0.725456 -0.309117 0.614947
-0.574177 0.356622 0.736981
-0.330886 0.300884 0.894418
-0.756459 0.131916 0.640599
-0.880762 -0.226682 0.415780
-0.179531 0.242025 0.953516
0.145543 0.213665 0.966004
0.434603 -0.012704 0.900533
0.578957 -0.346069 0.738272
-0.147174 -0.982971 -0.110037
0.135287 -0.989377 -0.053198
0.461124 -0.885561 0.056096
-0.723015 -0.690752 0.010505
-0.374884 -0.911240 -0.170597
-0.192345 -0.976353 -0.098681
0.487159 -0.738418 0.466278
-0.663087 0.202080 0.720749
-0.421341 0.361998 0.831522
-0.947664 -0.069673 0.311575
-0.896955 -0.401038 -0.186122
-0.091893 0.464532 0.880776
0.490090 0.209878 0.846028
0.817550 -0.189365 0.543831
0.057652 -0.997899 -0.029576
0.277703 -0.944416 0.175954
-0.430022 -0.655687 -0.620609
0.149734 -0.840468 -0.520761
0.805859 -0.513081 0.295533
-0.720678 0.643725 0.257376
-0.969378 0.234888 0.071655
-0.043201 0.926581 0.373606
-0.961265 -0.056251 -0.269825
-0.700259 -0.195003 -0.686739
0.572210 0.719875 0.392881
0.961667 0.193115 0.194685
0.974209 -0.193007 0.116898
0.654379 -0.743833 -0.136018
0.000231 -0.451309 -0.892368
0.628216 -0.481259 -0.611338
0.949493 -0.305467 -0.071780
-0.145851 0.987155 -0.065211
-0.728869 0.673207 -0.124668
-0.951319 0.295108 -0.088898
-0.961381 0.179371 -0.208742
0.519013 0.854664 0.013260
-0.835227 0.069999 -0.545432
-0.404560 -0.090469 -0.910025
0.870007 0.487822 0.071541
0.975375 -0.121857 0.183832
0.982112 -0.169571 0.081867
0.945732 -0.284516 0.156977
0.439865 -0.374278 -0.816354
0.874965 -0.264979 -0.405243
-0.060893 0.949572 -0.307580
0.537617 0.841090 -0.059459
-0.380183 0.515798 -0.767732
-0.730638 0.302884 -0.611906
-0.632632 0.548764 -0.546475
-0.776521 0.314961 -0.545724
0.806706 0.528515 0.264381
-0.763865 0.243333 -0.597746
-0.255549 0.193753 -0.947182
0.912706 -0.033668 0.407228
0.946079 -0.197739 0.256581
0.921488 -0.250648 0.296708
0.860115 -0.175777 -0.478858
0.990518 -0.073659 0.115971
0.547978 -0.281675 -0.787641
0.164688 0.905633 -0.390778
0.432818 0.876742 0.209741
0.756380 0.345204 0.555629
0.428279 0.337594 -0.838217
0.196508 -0.127384 -0.972193
0.142483 0.327131 -0.934175
-0.264765 0.414281 -0.870787
-0.647359 0.318294 -0.692542
0.855553 -0.054539 0.514835
-0.539535 0.551969 -0.635792
-0.467636 0.645749 -0.603593
0.196620 0.296361 -0.934618
0.946419 -0.090577 0.309978
0.894906 -0.176264 0.409970
0.913786 -0.171753 0.368098
0.933599 -0.126200 0.335361
0.613672 -0.244079 -0.750888
0.521684 -0.163010 -0.837421
0.926475 -0.009818 -0.376229
0.237521 0.955442 0.175256
0.418938 0.358342 0.834315
0.664550 0.023498 0.746874
0.137739 0.899362 -0.414942
0.072919 0.129094 -0.988948
-0.194807 0.103127 -0.975405
-0.550872 0.087722 -0.829967
-0.719332 0.067204 -0.691408
-0.836378 0.378026 -0.396949
0.875704 -0.240341 0.418783
0.835206 -0.096955 0.541323
-0.621842 0.558521 -0.548969
-0.222881 0.249142 -0.942471
0.627229 -0.204259 -0.751573
0.982376 0.135850 0.128386
0.911286 0.040918 0.409737
0.860480 -0.099890 0.499596
0.985605 -0.003056 -0.169039
0.543883 -0.314258 -0.778096
0.345102 -0.140170 -0.928039
0.557485 -0.000953 -0.830186
-0.016684 0.672416 0.739985
-0.346658 0.904563 0.248179
0.250623 0.241522 0.937473
0.582226 0.190640 0.790361
-0.794510 0.576462 -0.190905
-0.878558 0.016084 -0.477366
-0.938318 -0.037333 -0.343752
-0.929345 -0.219192 -0.297106
-0.961480 -0.230717 -0.149418
-0.997214 0.021301 -0.071484
0.640973 -0.349335 0.683461
0.741145 -0.158922 0.652264
-0.689605 -0.208449 -0.693537
0.296046 -0.488756 -0.820655
0.552984 -0.436744 -0.709551
0.980419 0.168221 0.102373
0.894099 0.157254 0.419354
0.728210 -0.018430 0.685106
0.862087 0.069851 -0.501923
0.202459 -0.264249 -0.942965
0.412245 -0.058501 -0.909193
-0.082868 0.428138 0.899906
-0.522019 0.567756 0.636514
-0.871786 0.364987 0.326761
0.251348 0.206846 0.945536
-0.990566 0.077776 0.112823
-0.966066 -0.076525 0.246699
-0.913221 -0.267192 0.307630
-0.927941 -0.355117 0.113215
-0.933521 -0.313732 0.173524
-0.932024 -0.354171 -0.076771
-0.900257 -0.433552 -0.039627
0.259064 -0.403444 0.877564
0.337104 -0.336443 0.879299
-0.330357 -0.773500 -0.540890
0.121825 -0.699179 -0.704490
0.951214 0.176415 0.253119
0.904180 0.142975 -0.402512
0.780418 0.071036 0.621210
0.223175 -0.129637 0.966120
0.596928 0.005425 0.802276
0.387810 -0.031418 -0.921204
-0.144283 -0.309167 -0.939999
-0.322818 0.186343 0.927936
-0.677547 0.146675 0.720706
-0.829877 0.053923 0.555335
-0.164727 -0.298401 0.940118
-0.817085 -0.207138 0.538020
-0.869764 -0.437579 0.228113
-0.749019 -0.307494 0.586871
-0.679926 -0.330564 0.654544
-0.618373 -0.740612 -0.262885
-0.907803 -0.417885 -0.035583
-0.216310 -0.386230 0.896681
0.893157 0.168960 0.416801
0.896556 0.210096 -0.389932
0.361847 0.081016 -0.928710
-0.340820 -0.213472 0.915572
0.020722 -0.098689 0.994903
0.561636 0.058371 0.825322
-0.408990 -0.147235 -0.900583
-0.672134 -0.354247 -0.650189
-0.531189 -0.213584 0.819890
-0.631357 -0.285644 0.720969
-0.896757 -0.245071 -0.368466
-0.822669 -0.253891 0.508680
0.766772 0.149214 0.624336
0.958777 0.206553 -0.195145
0.107671 0.067321 -0.991905
-0.102720 -0.084595 0.991107
0.037034 -0.060121 0.997504
-0.827573 -0.182006 -0.531033
-0.866966 -0.260179 0.425061
0.663038 0.081306 0.744157
0.980104 0.190551 -0.055562
0.200263 0.114725 -0.973002
-0.813169 -0.112362 -0.571079
-0.165647 -0.149629 0.974768
-0.917077 -0.251846 0.309100
0.651453 0.008028 0.758647
0.985762 0.132194 -0.103915
0.230590 0.099625 -0.967938
-0.831552 -0.070904 -0.550902
-0.947629 -0.181463 0.262811
-0.293201 -0.156677 0.943125
0.674489 -0.015846 0.738115
0.960117 0.122492 -0.251338
0.103919 0.126513 -0.986507
-0.858622 -0.011463 -0.512481
-0.943966 -0.126919 0.304663
-0.323975 -0.142214 0.935316
0.694622 -0.041640 0.718168
0.964716 0.094431 -0.245777
0.133284 0.126939 -0.982915
-0.847722 0.019813 -0.530071
-0.930009 -0.088763 0.356659
-0.273328 -0.143887 0.951098
0.568713 -0.092715 0.817294
0.989318 0.037496 -0.140871
0.203006 0.148306 -0.967881
-0.786299 0.078151 -0.612884
-0.952218 -0.018988 0.304829
-0.307225 -0.101487 0.946210
0.029685 -0.087777 0.995698
0.813884 -0.065576 0.577315
0.970754 0.016702 -0.239496
0.323498 0.148454 -0.934511
-0.620309 0.120937 -0.774978
-0.987900 0.047387 -0.147672
-0.693128 -0.033588 0.720032
-0.079809 -0.053645 0.995366
0.730497 -0.080354 0.678172
0.991238 -0.011776 -0.131564
0.440450 0.163378 -0.882786
-0.638088 0.191800 -0.745692
-0.957516 0.088180 -0.274568
-0.826526 0.046376 0.560984
-0.105123 0.088624 0.990502
0.668166 0.003549 0.744004
0.984896 -0.031217 -0.170307
0.655447 0.165326 -0.736924
-0.526182 0.384298 -0.758583
-0.962664 0.168434 -0.211916
-0.940786 0.193792 0.278150
-0.603696 0.536008 0.590124
0.197926 0.241797 0.949926
0.874792 0.244276 0.418412
0.965569 0.140500 -0.218945
0.800542 0.161667 -0.577059
-0.029579 0.540891 -0.840572
-0.906211 0.367711 -0.208734
-0.926382 0.355536 -0.124140
-0.432913 0.790988 0.432347
0.128323 0.407512 0.904139
-0.632234 0.738795 -0.233372
0.412952 0.199877 0.888549
0.819577 0.179284 0.544197
0.980842 0.104924 -0.164133
0.979576 0.142384 -0.141977
0.822034 0.302923 -0.482180
0.720475 0.424904 -0.548063
0.142688 0.695410 -0.704305
-0.852438 0.514110 -0.095083
-0.798028 0.599380 -0.062415
-0.763295 0.632872 -0.129823
-0.393313 0.684931 0.613331
-0.517511 0.807998 -0.281642
0.042985 0.344261 0.937890
0.319129 0.040561 0.946843
-0.641808 0.600348 -0.477143
0.417315 -0.050677 0.907348
0.909884 -0.132893 0.393002
0.919299 -0.317031 -0.233198
0.955967 -0.275303 0.101667
0.996729 0.066583 -0.045813
0.824255 0.191117 -0.532990
0.734795 0.230154 -0.638048
0.704022 0.016597 -0.709985
0.363191 0.150699 -0.919447
-0.255564 0.696544 -0.670458
-0.608865 0.776567 -0.161949
-0.586503 0.798479 0.135814
-0.874673 0.483055 -0.040062
-0.680934 0.522324 0.513329
-0.361709 0.129398 0.923267
-0.779029 0.626735 0.017786
-0.561192 0.200691 -0.802986
-0.715720 0.437285 -0.544543
-0.058361 -0.212455 0.975427
0.229220 -0.276080 0.933402
-0.955854 -0.238729 -0.171322
0.267904 -0.217028 0.938683
0.405175 -0.183231 0.895689
0.824168 -0.528380 0.203867
0.736000 -0.619969 -0.271924
0.732861 -0.656691 0.177967
0.748786 -0.379931 0.543113
0.963385 -0.202814 -0.175372
0.784645 -0.022985 -0.619519
0.763106 0.031070 -0.645527
0.610860 -0.202051 -0.765523
0.256043 -0.121217 -0.959035
-0.274930 0.194311 -0.941624
-0.464580 0.744362 -0.479677
-0.257614 0.962470 -0.085358
-0.304962 0.869490 0.388569
-0.637838 0.389982 0.664137
-0.974788 0.213043 0.066334
-0.674651 0.042659 0.736903
-0.309275 -0.139096 0.940745
-0.917624 0.039633 -0.395469
-0.514602 -0.249746 -0.820251
-0.541898 -0.151019 -0.826764
-0.086289 -0.157910 0.983676
0.149837 -0.219660 0.964001
-0.563968 -0.074166 0.822459
-0.911206 -0.401939 0.090271
0.236271 -0.242893 0.940840
0.429267 -0.672291 0.603120
0.488615 -0.860537 -0.143988
0.364479 -0.906345 -0.213761
0.315225 -0.835102 0.450819
0.667571 -0.696629 0.262787
0.748279 -0.099234 -0.655921
0.682002 -0.136847 -0.718433
0.525115 -0.270636 -0.806852
0.242453 -0.255318 -0.935964
-0.180093 -0.022591 -0.983390
-0.695472 0.160330 -0.700437
-0.634308 0.762058 0.130080
-0.505313 0.342637 0.791997
-0.862147 -0.442858 -0.246129
-0.847730 -0.319270 0.423580
-0.557615 -0.405069 0.724558
-0.637459 -0.598751 -0.484916
-0.361615 -0.535886 -0.762929
-0.133630 -0.652197 0.746178
0.171069 -0.674443 0.718235
-0.629390 -0.236008 0.740384
-0.486903 -0.234281 0.841450
-0.445025 -0.492660 0.747822
-0.569909 -0.775635 0.271282
-0.388133 -0.792595 -0.470262
0.165249 -0.971204 0.171626
0.170678 -0.967746 -0.185303
-0.042601 -0.972351 0.229604
-0.069554 -0.922806 -0.378933
0.071385 -0.838464 0.540262
0.275390 -0.890944 0.361080
0.623353 -0.657996 -0.422459
0.560971 -0.126073 -0.818179
0.432441 -0.282113 -0.856392
0.238002 -0.273281 -0.932026
-0.131094 -0.181175 -0.974674
-0.769722 -0.385874 -0.508556
-0.981272 0.074660 0.177568
-0.418906 -0.783823 -0.458409
-0.605701 -0.767033 -0.211628
-0.426410 -0.904520 -0.004301
-0.164714 -0.827014 -0.537510
-0.092421 -0.994825 0.042214
-0.860731 -0.470662 0.193955
-0.553066 -0.561434 0.615556
-0.373460 -0.687907 0.622344
-0.284494 -0.697075 0.658141
-0.051092 -0.975455 -0.214192
-0.114000 -0.863752 0.490853
0.148059 -0.985985 0.076890
0.409762 -0.459286 -0.788132
0.031087 -0.471463 -0.881338
-0.519429 -0.630680 -0.576572
-0.710903 -0.702470 -0.033951
-0.249898 -0.920025 -0.301837
-0.519729 -0.807177 0.279903
-0.217718 -0.969229 0.114864
-0.024340 -0.900412 -0.434357
-0.382915 -0.901852 -0.200099
</DataArray>
         </PointData>
         <Points>
            <DataArray NumberOfComponents="3" format="ascii" type="Float32">	-0.005027 0.017307 -0.013945
-0.000756 0.009309 -0.019736
-0.010993 0.014243 -0.014980
0.002450 0.017447 -0.014605
-0.004071 0.019686 -0.010428
0.007961 0.017230 -0.011990
-0.014436 0.007287 -0.016884
-0.011659 -0.000779 -0.020561
-0.002979 -0.004801 -0.022748
0.005292 0.001126 -0.022912
0.010124 0.006017 -0.019025
0.008628 0.013996 -0.015650
-0.010357 0.017171 -0.011073
-0.016355 0.010971 -0.012580
0.014460 0.011908 -0.012863
-0.003681 0.021647 -0.004396
0.005432 0.020443 -0.006266
0.012923 0.017031 -0.006818
-0.017787 0.002486 -0.015478
-0.013064 -0.004285 -0.018989
-0.002949 -0.007845 -0.022012
0.005836 -0.004771 -0.022583
0.011879 -0.001153 -0.020013
0.014981 0.003761 -0.017177
-0.010881 0.019370 -0.004992
-0.017074 0.014059 -0.006519
-0.020549 0.005974 -0.009763
0.018559 0.010845 -0.007291
-0.003740 0.022215 0.001441
0.002445 0.022216 0.001743
0.009068 0.020322 0.001173
0.016403 0.015711 0.000241
-0.018592 -0.003764 -0.014346
-0.011812 -0.009424 -0.018294
-0.001749 -0.010795 -0.020973
0.007370 -0.008687 -0.020814
0.015131 -0.004086 -0.017263
0.020283 0.002826 -0.011109
-0.010780 0.019980 0.000852
-0.017493 0.015144 -0.000466
-0.022325 0.006383 -0.003671
-0.022043 -0.002164 -0.008390
0.022223 0.000855 -0.008308
0.020879 0.009940 -0.001861
-0.011302 0.018772 0.007328
-0.004681 0.021072 0.007234
0.001935 0.021261 0.007862
0.008398 0.019589 0.008206
0.016840 0.013393 0.007984
-0.017106 -0.009529 -0.013272
-0.009472 -0.013108 -0.017009
0.000258 -0.014937 -0.018420
0.011134 -0.011232 -0.017291
0.017951 -0.007137 -0.013596
-0.017525 0.013985 0.005918
-0.022510 0.005841 0.002218
-0.022945 -0.004161 -0.002742
-0.018360 -0.011578 -0.008997
0.023129 -0.003529 -0.002441
0.021744 0.005923 0.005081
-0.012487 0.015553 0.011899
-0.019279 0.010003 0.008662
-0.004890 0.018379 0.012949
0.003300 0.017893 0.013989
0.010923 0.014269 0.014584
0.016462 0.008982 0.014072
-0.010522 -0.015186 -0.014409
0.000399 -0.016975 -0.016541
0.012070 -0.014364 -0.013913
0.020225 -0.008980 -0.008920
-0.022893 0.000291 0.004904
-0.021929 -0.008395 -0.000624
-0.016728 -0.014152 -0.009847
-0.007637 -0.017022 -0.014158
0.022188 -0.004767 0.006167
0.020832 0.001526 0.011050
-0.004728 0.015395 0.016864
-0.011799 0.013237 0.015485
-0.018149 0.007426 0.012837
0.001607 0.014143 0.018842
0.006565 0.012177 0.019181
0.011182 0.007075 0.019305
0.016571 -0.001279 0.016888
0.004273 -0.018090 -0.014422
0.014373 -0.016452 -0.007551
0.020365 -0.011885 -0.001435
-0.022221 -0.000596 0.009167
-0.022065 -0.007811 0.003927
-0.016560 -0.014269 -0.003475
-0.008516 -0.017161 -0.009047
0.018205 -0.015271 0.002199
0.019008 -0.007793 0.011657
-0.012116 0.009016 0.018133
-0.004510 0.010504 0.020281
-0.016967 0.002384 0.014863
-0.018723 -0.005162 0.012369
0.002086 0.008292 0.022158
0.008498 0.004214 0.021493
0.011498 -0.003098 0.020527
0.014239 -0.010147 0.015545
-0.000169 -0.019028 -0.010219
0.006148 -0.019665 -0.009004
0.013787 -0.018100 -0.003870
-0.017048 -0.013087 0.003912
-0.010463 -0.016783 -0.001687
-0.003208 -0.018960 -0.003959
0.014175 -0.016018 0.009283
-0.010840 -0.003082 0.017989
-0.004063 0.002159 0.019101
-0.015042 -0.011056 0.014744
-0.013562 -0.017813 0.008070
0.001895 -0.000172 0.021004
0.008399 -0.003632 0.022272
0.011202 -0.010542 0.018799
0.003642 -0.019261 -0.002996
0.010339 -0.018739 0.001451
-0.008290 -0.021270 0.003781
0.000980 -0.022134 0.003718
0.011262 -0.015949 0.013463
-0.008584 -0.009702 0.026082
-0.013386 -0.017379 0.021959
-0.001068 -0.005367 0.027724
-0.013061 -0.022861 0.015254
-0.011201 -0.028551 0.011209
0.006245 -0.008587 0.028959
0.009371 -0.016064 0.027486
0.008903 -0.023115 0.024483
0.008810 -0.019963 0.007994
-0.006311 -0.031071 0.008673
0.001070 -0.031761 0.010645
0.007208 -0.029467 0.019092
-0.002275 -0.006666 0.034308
-0.008537 -0.011613 0.030835
-0.012878 -0.019604 0.026279
-0.014173 -0.027298 0.021778
0.004097 -0.008808 0.036561
-0.013234 -0.034807 0.013988
-0.010956 -0.036947 0.010793
0.009200 -0.013068 0.036456
0.011694 -0.019094 0.035657
0.007390 -0.034162 0.027504
0.009011 -0.024960 0.032919
-0.000634 -0.040194 0.012928
0.005936 -0.039413 0.018483
-0.002264 -0.005901 0.040964
0.003582 -0.007266 0.042345
-0.010212 -0.010451 0.038423
-0.011884 -0.018520 0.037756
-0.014308 -0.026673 0.031878
-0.016608 -0.035477 0.023007
0.008264 -0.010854 0.043633
-0.015382 -0.041999 0.016745
-0.013951 -0.045916 0.011328
0.009650 -0.015927 0.043983
0.006567 -0.031294 0.036193
0.007842 -0.022636 0.041660
0.005168 -0.046962 0.019115
0.006525 -0.039809 0.028641
-0.004576 -0.047522 0.013643
-0.005047 -0.004487 0.046347
0.001354 -0.004869 0.049809
0.005553 -0.011073 0.050402
-0.018374 -0.005223 0.037430
-0.019038 -0.014772 0.040868
-0.019920 -0.024070 0.038843
-0.021961 -0.030712 0.032532
-0.020646 -0.038085 0.027949
0.006254 -0.020457 0.049157
-0.018859 -0.045447 0.020404
-0.017999 -0.049407 0.015194
-0.016859 -0.051721 0.008514
0.004882 -0.036517 0.041407
0.004686 -0.029659 0.045688
0.007016 -0.049837 0.028677
0.005753 -0.043021 0.034893
-0.010920 -0.054524 0.013193
0.000633 -0.055511 0.017262
0.006891 -0.053050 0.021853
-0.004597 -0.003877 0.050981
0.003019 -0.013221 0.053778
0.004239 -0.023175 0.051722
-0.018341 -0.002205 0.039776
-0.025768 -0.005788 0.035269
-0.026866 -0.020256 0.037587
-0.027170 -0.030822 0.034145
-0.025447 -0.040917 0.031413
-0.023574 -0.047822 0.023463
0.002960 -0.040320 0.046102
0.004061 -0.032996 0.051010
-0.024922 -0.052109 0.013330
-0.022429 -0.055835 0.007685
-0.016540 -0.057978 0.007914
0.007631 -0.055616 0.027543
0.006325 -0.052707 0.034442
0.004508 -0.046709 0.041101
0.006798 -0.058454 0.021441
-0.012548 -0.059102 0.013711
-0.004991 -0.060074 0.016823
0.001026 -0.060493 0.017870
-0.007604 -0.006156 0.054829
-0.020218 -0.003181 0.046230
-0.002473 -0.015443 0.057146
-0.000267 -0.024697 0.057478
-0.028804 -0.005088 0.039668
-0.030203 -0.021448 0.039899
-0.030873 -0.030875 0.039508
-0.029311 -0.040211 0.038522
-0.023052 -0.050475 0.030944
-0.026357 -0.055939 0.016790
-0.000375 -0.042285 0.051329
0.001448 -0.034744 0.056386
-0.023995 -0.059148 0.009499
-0.017492 -0.061708 0.009017
-0.011991 -0.063195 0.016046
0.008591 -0.061684 0.029456
0.006156 -0.056183 0.038622
0.001589 -0.052538 0.045394
0.008629 -0.064537 0.023336
-0.004526 -0.065729 0.017524
0.003505 -0.066258 0.018589
-0.010257 -0.010893 0.056723
-0.024167 -0.008529 0.051846
-0.029184 -0.011762 0.045639
-0.004639 -0.023282 0.061666
-0.029750 -0.019969 0.046458
-0.028893 -0.030930 0.047419
-0.026522 -0.039475 0.046261
-0.022624 -0.055635 0.038777
-0.020324 -0.060932 0.027123
-0.018084 -0.063950 0.034333
-0.025244 -0.062694 0.017367
-0.004803 -0.044043 0.053511
-0.001730 -0.034434 0.060362
-0.022105 -0.064305 0.010927
-0.012625 -0.068122 0.018428
0.009534 -0.068952 0.033264
0.009320 -0.071010 0.023331
0.005012 -0.067233 0.041372
-0.002874 -0.052163 0.050191
0.001454 -0.066101 0.046303
0.002301 -0.072196 0.018527
-0.006145 -0.070744 0.018349
-0.011261 -0.024187 0.061288
-0.020648 -0.022576 0.058358
-0.025441 -0.024331 0.053604
-0.008946 -0.037423 0.059524
-0.023712 -0.033732 0.054041
-0.017465 -0.065140 0.041827
-0.018889 -0.057007 0.045380
-0.021149 -0.046452 0.049470
-0.017698 -0.068137 0.023554
-0.014143 -0.075226 0.034950
-0.011273 -0.047570 0.052541
0.013309 -0.085167 0.031281
0.012722 -0.085190 0.023885
0.006299 -0.086423 0.019260
-0.009589 -0.057464 0.049162
-0.004414 -0.067087 0.048665
0.005952 -0.085110 0.041884
-0.002576 -0.087122 0.020634
-0.005733 -0.078395 0.020965
-0.016551 -0.036579 0.058076
-0.012299 -0.066232 0.046406
-0.008341 -0.090328 0.028599
-0.008379 -0.088109 0.043582
0.015080 -0.116577 0.038486
0.018334 -0.109127 0.026527
0.011943 -0.114829 0.017318
-0.001905 -0.087212 0.047276
0.002745 -0.117365 0.044828
-0.001216 -0.116640 0.024365
-0.003268 -0.118881 0.041355
0.020374 -0.147350 0.038882
0.025675 -0.144892 0.027655
0.017456 -0.145076 0.014729
0.006229 -0.148186 0.021717
0.010783 -0.149431 0.041628
0.003963 -0.150674 0.035928
0.025890 -0.179731 0.036872
0.030308 -0.176846 0.026388
0.022243 -0.176462 0.013210
0.010554 -0.176534 0.019721
0.009242 -0.178938 0.031570
0.015408 -0.178318 0.039036
0.028378 -0.207496 0.034466
0.032436 -0.205510 0.020431
0.021714 -0.205682 0.011617
0.013295 -0.207943 0.017459
0.012489 -0.209252 0.029099
0.018501 -0.209129 0.036184
0.031308 -0.242609 0.030486
0.034535 -0.240773 0.017759
0.024922 -0.239787 0.008298
0.015177 -0.240266 0.013412
0.014102 -0.243339 0.025237
0.021523 -0.243490 0.032725
0.033084 -0.275261 0.025580
0.035818 -0.273604 0.014773
0.026104 -0.271433 0.004708
0.015122 -0.273143 0.010196
0.014717 -0.275758 0.023365
0.022489 -0.277084 0.028821
0.022284 -0.307555 0.025864
0.029920 -0.307218 0.024149
0.034754 -0.305535 0.009881
0.028027 -0.304148 0.000746
0.018496 -0.304018 0.003237
0.012408 -0.305335 0.011818
0.014435 -0.307402 0.022514
0.019885 -0.340479 0.023683
0.030740 -0.340823 0.021193
0.033851 -0.341448 0.007215
0.025743 -0.338658 -0.004653
0.016142 -0.337269 -0.002063
0.011337 -0.338043 0.007952
0.010881 -0.339486 0.019541
0.016983 -0.367285 0.023682
0.031216 -0.370129 0.018003
0.030476 -0.368346 0.001878
0.025708 -0.365247 -0.008512
0.014792 -0.362425 -0.010273
0.008847 -0.367666 0.005889
0.007641 -0.366884 0.019984
0.002655 -0.379981 0.023009
0.015523 -0.381394 0.025617
0.029925 -0.386391 0.020785
0.029547 -0.384766 -0.000447
0.022030 -0.377881 -0.013768
0.012115 -0.375266 -0.018196
0.008116 -0.377884 -0.009247
0.006616 -0.380674 0.003266
-0.002897 -0.386977 0.028552
0.011980 -0.394159 0.031420
-0.000454 -0.386982 0.014488
0.022959 -0.397253 0.028606
0.035306 -0.397072 0.021105
0.032968 -0.395633 0.008448
0.031145 -0.395746 -0.001877
0.027072 -0.390989 -0.013137
0.020784 -0.387953 -0.020689
0.006791 -0.387902 -0.033406
0.011160 -0.382117 -0.023459
0.004383 -0.386023 -0.013469
0.003587 -0.387849 0.000222
-0.009434 -0.391673 0.029127
-0.009795 -0.390173 0.014384
0.002353 -0.398568 0.036067
0.010398 -0.402182 0.034107
-0.006731 -0.392187 0.009106
0.021525 -0.404413 0.029318
0.035446 -0.405787 0.021325
0.032663 -0.405177 0.008789
0.030062 -0.406264 -0.000232
0.032818 -0.405157 -0.007829
0.025956 -0.399818 -0.018001
0.019136 -0.394624 -0.027519
0.017446 -0.402156 -0.030315
0.011730 -0.397800 -0.036877
0.002937 -0.393959 -0.037526
-0.000852 -0.391272 -0.025995
-0.001801 -0.392515 -0.016571
-0.002039 -0.394480 -0.001938
-0.016769 -0.397147 0.027677
-0.009767 -0.402873 0.035207
-0.017997 -0.395692 0.022044
-0.011068 -0.400730 0.006348
-0.016787 -0.397566 0.012051
-0.002143 -0.406302 0.037033
0.007871 -0.408459 0.034121
-0.002281 -0.400084 -0.001555
0.017481 -0.411851 0.029677
0.024589 -0.413262 0.027714
0.031195 -0.414066 0.022521
0.029754 -0.413497 0.010670
0.025460 -0.412837 0.000033
0.029709 -0.413635 -0.006108
0.033345 -0.414184 -0.010227
0.029794 -0.410377 -0.016316
0.024650 -0.407569 -0.021375
0.015140 -0.409293 -0.030919
0.006830 -0.402541 -0.038298
-0.007303 -0.397547 -0.036054
-0.015521 -0.394175 -0.027941
-0.003647 -0.393526 -0.028425
-0.010118 -0.392991 -0.018940
-0.008083 -0.398395 -0.013016
-0.022408 -0.404588 0.023297
-0.021165 -0.406397 0.029793
-0.012553 -0.410420 0.030597
-0.020512 -0.405620 0.013998
-0.002882 -0.408422 0.006231
-0.016366 -0.408881 0.008787
-0.006449 -0.413673 0.032330
0.003243 -0.416680 0.031912
-0.001044 -0.408861 -0.009405
0.004058 -0.410535 -0.001843
0.016771 -0.417675 0.028481
0.023161 -0.421217 0.025633
0.022884 -0.421138 0.014379
0.019261 -0.417790 0.004385
0.020794 -0.418748 -0.004095
0.029071 -0.420928 -0.011581
0.027465 -0.417050 -0.018789
0.021598 -0.413145 -0.022962
0.012713 -0.414202 -0.031252
0.002472 -0.411800 -0.036440
-0.007632 -0.409205 -0.036730
-0.020658 -0.408592 -0.033736
-0.017667 -0.395899 -0.020933
-0.016816 -0.403420 -0.013198
-0.021820 -0.410716 0.019655
-0.021244 -0.413129 0.028080
-0.015779 -0.417373 0.031837
-0.014973 -0.415510 0.012463
-0.005442 -0.416331 0.007583
-0.007523 -0.422437 0.032296
0.005837 -0.423079 0.029917
-0.018287 -0.409922 -0.014403
-0.013221 -0.415616 -0.014291
-0.004487 -0.422012 -0.013927
0.007255 -0.416320 -0.001125
0.007211 -0.417681 0.005644
0.013777 -0.423537 0.025725
0.014433 -0.424549 0.017703
0.013143 -0.418346 -0.000209
0.012486 -0.421127 0.009177
0.014155 -0.421520 -0.005391
0.019347 -0.425500 -0.012975
0.022154 -0.425019 -0.022274
0.017173 -0.418753 -0.025937
0.009566 -0.420713 -0.029919
0.003233 -0.417783 -0.034554
-0.007621 -0.415450 -0.036092
-0.018097 -0.414535 -0.033884
-0.022322 -0.403616 -0.021101
-0.009423 -0.419038 0.012840
-0.014324 -0.419420 0.018578
-0.011563 -0.421864 0.024560
0.001318 -0.420799 0.010887
-0.000728 -0.424582 0.023307
-0.020977 -0.415899 -0.023124
-0.014416 -0.420856 -0.018401
-0.003730 -0.426432 -0.016147
0.006343 -0.421611 -0.007606
0.006280 -0.424557 0.017171
0.004537 -0.429129 -0.015807
0.009081 -0.430285 -0.021312
0.011900 -0.427962 -0.028185
-0.004435 -0.425101 -0.034302
-0.013769 -0.422733 -0.031571
-0.015841 -0.422242 -0.024399
-0.004460 -0.422900 0.017036
-0.008972 -0.426934 -0.021198
-0.001631 -0.429478 -0.020925
0.001302 -0.428160 -0.031677
-0.008172 -0.427189 -0.027455
</DataArray>
         </Points>
         <Polys>
            <DataArray Name="connectivity" format="ascii" type="Int32">