<?xml version="1.0"?>
<VTKFile type="PolyData" version="0.1" byte_order="LittleEndian" compressor="vtkZLibDataCompressor">
	<PolyData>
		<Piece NumberOfPoints="122" NumberOfVerts="0" NumberOfLines="0" NumberOfStrips="0" NumberOfPolys="130">
		<PointData Normals="Normals">
		<DataArray type="Float32" Name="Normals" NumberOfComponents="3" format="ascii">
			0.004014 -0.601212 0.799079
			-0.542238 -0.793608 0.275979
			-0.542389 -0.538044 0.645231
			-0.339450 -0.559911 0.755826
			-0.322777 -0.939867 0.111643
			-0.216791 -0.610291 0.761936
			0.096325 -0.649295 0.754412
			0.530375 -0.695661 0.484519
			0.737956 -0.637560 0.221219
			0.483318 -0.858980 0.168988
			-0.164401 -0.985442 0.043313
			-0.919577 -0.293063 -0.261709
			-0.953712 -0.188301 0.234473
			-0.636855 -0.494906 -0.591171
			-0.641001 -0.132699 0.755983
			-0.083752 -0.087560 0.992632
			-0.023006 -0.611002 -0.791294
			0.513992 -0.020963 0.857539
			0.945338 0.101594 0.309865
			0.967354 0.024682 -0.252224
			0.652886 -0.387236 -0.650991
			-0.988361 -0.147510 -0.037200
			-0.919830 -0.000387 0.392316
			-0.806756 -0.300197 -0.508946
			-0.603681 0.181483 0.776294
			-0.131425 -0.426695 -0.894795
			-0.099598 0.287740 0.952516
			0.510003 0.286702 0.810987
			0.816732 -0.192316 -0.544024
			0.827274 0.248015 0.504090
			0.969808 0.159773 0.184242
			-0.783153 0.205903 -0.586749
			-0.993388 0.114659 -0.005720
			-0.324916 0.354205 -0.876909
			-0.677335 0.077891 0.731539
			0.253104 0.418592 -0.872192
			-0.234866 0.071955 0.969361
			0.685940 0.252511 -0.682439
			0.371598 0.064649 0.926140
			0.776473 0.028983 0.629484
			0.988464 0.025796 0.149241
			-0.654316 0.151817 -0.740826
			-0.984506 0.027067 0.173249
			0.419691 0.338574 -0.842156
			-0.604828 0.006875 0.796327
			0.629408 0.476269 -0.614014
			-0.029653 0.018523 0.999389
			0.382282 0.308237 -0.871120
			0.738753 0.034503 0.673093
			0.841539 0.042216 -0.538544
			0.984986 0.032842 0.169480
			-0.900262 -0.038908 -0.433605
			-0.856079 -0.042168 0.515121
			0.184394 0.039534 -0.982057
			-0.482909 -0.026537 0.875269
			0.557994 0.093840 -0.824522
			0.275898 -0.006962 0.961162
			0.441307 0.059130 -0.895405
			0.952657 0.010130 0.303876
			0.883781 0.013505 -0.467705
			0.991341 0.010108 0.130923
			-0.888880 -0.029113 -0.457216
			-0.873399 -0.019848 0.486600
			0.030638 -0.004998 -0.999518
			-0.481151 -0.002056 0.876635
			0.399177 0.008252 -0.916837
			0.034535 0.014749 0.999295
			0.518581 -0.004836 -0.855014
			0.733673 0.004428 0.679488
			0.968726 -0.078624 0.235349
			0.698230 -0.040504 0.714727
			-0.896751 -0.013206 -0.442337
			-0.899610 0.000794 0.436692
			-0.129133 -0.012060 -0.991554
			-0.492835 0.016813 0.869961
			0.270596 -0.006526 -0.962671
			-0.213058 0.025276 0.976713
			0.307071 -0.024642 -0.951367
			0.292191 -0.018245 0.956186
			0.929535 -0.368210 0.019618
			0.527725 -0.132299 0.839049
			-0.876197 0.008541 -0.481877
			-0.988329 0.021051 0.150870
			-0.462782 -0.030981 -0.885931
			-0.573011 -0.015089 0.819409
			0.067266 -0.040774 -0.996901
			-0.230543 -0.037873 0.972325
			0.163708 -0.036762 -0.985824
			0.171295 -0.050746 0.983912
			0.554860 -0.162309 -0.815958
			0.736378 -0.127613 0.664426
			-0.926288 0.002451 -0.376808
			-0.974657 -0.007741 -0.223572
			-0.891029 -0.094935 -0.443907
			-0.693871 -0.320810 0.644689
			-0.221827 -0.156100 -0.962510
			0.105483 -0.484243 0.868552
			0.407771 -0.095611 -0.908065
			0.632729 -0.131323 0.763156
			0.735500 0.228694 -0.637761
			0.927908 0.334131 0.165358
			-0.988183 0.020827 -0.151863
			-0.976631 0.011490 -0.214616
			-0.997262 0.050988 -0.053561
			-0.769736 -0.105519 0.629580
			-0.471112 0.140080 -0.870879
			0.327177 -0.182834 0.927107
			0.652883 0.299113 -0.695899
			0.793956 0.202591 0.573228
			0.806247 0.591494 0.009979
			0.710402 0.606946 0.356295
			-0.949076 0.314871 -0.010509
			-0.863222 0.436917 -0.252888
			-0.852756 0.332941 0.402439
			-0.543059 0.760335 0.356340
			-0.635391 0.742426 0.212324
			-0.096837 0.797441 0.595576
			0.150919 0.936567 0.316332
			-0.017982 0.807043 0.590219
			0.078886 0.811775 0.578618
			-0.041067 0.802237 0.595591
			-0.541798 0.730222 0.416210
		</DataArray>
	</PointData>
	<Points>
		<DataArray type="Float32" NumberOfComponents="3" format="ascii">
			-0.011439 -0.400747 -0.023688
			-0.016089 -0.407066 -0.025588
			-0.017304 -0.399877 -0.022195
			-0.016033 -0.392631 -0.018481
			-0.013227 -0.405716 -0.026754
			-0.012117 -0.392526 -0.016948
			-0.006765 -0.395169 -0.016109
			-0.001057 -0.397859 -0.019574
			-0.004956 -0.401116 -0.025343
			-0.009979 -0.404321 -0.025274
			-0.011181 -0.404354 -0.025755
			-0.016906 -0.397634 -0.025825
			-0.020888 -0.391143 -0.021368
			-0.015398 -0.396184 -0.029683
			-0.020257 -0.384512 -0.013643
			-0.012712 -0.384309 -0.010725
			-0.011145 -0.394655 -0.032096
			-0.004717 -0.385299 -0.012570
			0.000776 -0.386399 -0.018861
			-0.001146 -0.390453 -0.026547
			-0.006327 -0.394525 -0.030204
			-0.020955 -0.386656 -0.027291
			-0.020487 -0.380218 -0.021594
			-0.018343 -0.387497 -0.033801
			-0.017120 -0.373741 -0.017952
			-0.011066 -0.388206 -0.037894
			-0.012734 -0.373623 -0.016282
			-0.009080 -0.370804 -0.018739
			-0.002926 -0.387987 -0.034729
			-0.008140 -0.368056 -0.022241
			-0.003108 -0.377941 -0.026289
			-0.019382 -0.369007 -0.026490
			-0.019242 -0.364387 -0.022114
			-0.018399 -0.375103 -0.033183
			-0.016744 -0.359729 -0.019030
			-0.011320 -0.381049 -0.038731
			-0.013105 -0.359632 -0.017675
			-0.002714 -0.380818 -0.035420
			-0.010060 -0.346871 -0.019249
			-0.008783 -0.334167 -0.022332
			-0.003205 -0.357408 -0.026688
			-0.018013 -0.359191 -0.025875
			-0.018457 -0.342698 -0.022600
			-0.016568 -0.368502 -0.030028
			-0.017019 -0.326175 -0.020185
			-0.011753 -0.377726 -0.032998
			-0.014118 -0.326098 -0.019161
			-0.006465 -0.377584 -0.030974
			-0.012649 -0.280931 -0.020298
			-0.007912 -0.306649 -0.026310
			-0.012387 -0.235804 -0.023025
			-0.023034 -0.301616 -0.027023
			-0.023190 -0.280371 -0.021877
			-0.017787 -0.330059 -0.029841
			-0.020588 -0.259085 -0.018429
			-0.012665 -0.358463 -0.029195
			-0.016267 -0.258971 -0.017068
			-0.009632 -0.358382 -0.028068
			-0.015263 -0.199821 -0.020514
			-0.012825 -0.249537 -0.025737
			-0.017739 -0.140746 -0.023846
			-0.026419 -0.236171 -0.027263
			-0.026749 -0.208081 -0.021376
			-0.020012 -0.264904 -0.029657
			-0.023862 -0.179939 -0.017308
			-0.015096 -0.293623 -0.027686
			-0.018709 -0.179805 -0.015911
			-0.013103 -0.293570 -0.027019
			-0.015800 -0.143912 -0.019020
			-0.014090 -0.200832 -0.026109
			-0.016094 -0.108102 -0.023208
			-0.028207 -0.187638 -0.027109
			-0.027914 -0.159376 -0.021390
			-0.022929 -0.192436 -0.029865
			-0.024877 -0.131076 -0.018077
			-0.018681 -0.197214 -0.028454
			-0.020318 -0.130959 -0.016963
			-0.016344 -0.197153 -0.027798
			-0.015758 -0.106247 -0.017587
			-0.013786 -0.139383 -0.027294
			-0.012168 -0.081593 -0.022174
			-0.028514 -0.138090 -0.026498
			-0.028380 -0.110493 -0.021663
			-0.024625 -0.135090 -0.029145
			-0.025923 -0.082864 -0.018808
			-0.021139 -0.132069 -0.028456
			-0.021971 -0.082763 -0.017944
			-0.018781 -0.132008 -0.027878
			-0.014529 -0.076857 -0.015181
			-0.011707 -0.101532 -0.028873
			-0.005107 -0.070981 -0.020629
			-0.027177 -0.105125 -0.025739
			-0.028722 -0.086707 -0.021747
			-0.025686 -0.102838 -0.028843
			-0.027193 -0.068213 -0.017385
			-0.022526 -0.100497 -0.030497
			-0.022284 -0.068088 -0.016351
			-0.018898 -0.100404 -0.029670
			-0.014602 -0.063328 -0.014813
			-0.011831 -0.079532 -0.029258
			-0.006044 -0.058616 -0.020812
			-0.026430 -0.069569 -0.025131
			-0.030953 -0.067194 -0.020939
			-0.029910 -0.063842 -0.031683
			-0.030041 -0.064653 -0.012594
			-0.025335 -0.057945 -0.040530
			-0.021804 -0.064442 -0.010874
			-0.015512 -0.057694 -0.038515
			-0.015554 -0.058306 -0.015692
			-0.011710 -0.054917 -0.029814
			-0.013965 -0.052297 -0.022404
			-0.027418 -0.056553 -0.025175
			-0.028991 -0.054932 -0.021940
			-0.027006 -0.049884 -0.027835
			-0.027552 -0.053229 -0.017536
			-0.024710 -0.043164 -0.029806
			-0.022795 -0.053107 -0.016571
			-0.021377 -0.043079 -0.029148
			-0.019531 -0.050450 -0.019745
			-0.019332 -0.045453 -0.026493
			-0.019259 -0.047868 -0.023438
			-0.023737 -0.051895 -0.024375
		</DataArray>
	</Points>
			<Polys>
				<DataArray type="Int32" Name="connectivity" format="ascii">
			-0.024970 -0.039599 -0.012599
			-0.024466 -0.047352 0.006070
			-0.022826 -0.047520 0.013109
			-0.016000 -0.049644 0.021742
			0.025493 -0.059978 -0.016012
			0.027616 -0.055113 -0.010115
			0.020759 -0.052754 -0.023957
			-0.014840 -0.047665 -0.020513
			-0.011053 -0.045080 -0.030465
			0.010484 -0.036497 -0.035658
			-0.006175 -0.048463 0.024488
			0.018594 -0.041654 0.006653
			-0.005888 -0.020983 -0.007631
			0.003647 -0.022903 -0.013313
			0.021779 -0.045672 -0.002806
			-0.025921 -0.029804 -0.014076
			-0.024458 -0.026755 -0.009873
			-0.026996 -0.031321 -0.021335
			-0.025383 -0.042262 -0.025863
			-0.022207 -0.028325 -0.003533
			-0.029710 -0.039725 0.000527
			-0.030140 -0.031001 0.015067
			-0.024755 -0.032661 0.026942
			-0.029650 -0.032299 0.020728
			-0.005149 -0.027221 0.030573
			-0.017880 -0.031483 0.030276
			0.022412 -0.050659 -0.018112
			0.018273 -0.031780 -0.025214
			-0.015084 -0.036723 -0.037264
			-0.000171 -0.028391 -0.038233
			0.012457 -0.024951 -0.028176
			0.011302 -0.033646 0.018347
			0.016937 -0.023963 0.005541
			-0.000771 -0.022569 -0.000868
			-0.003464 -0.023207 -0.020315
			-0.011172 -0.017999 -0.006279
			-0.006785 -0.021303 0.000116
			0.010760 -0.021791 0.004132
			0.015116 -0.025327 -0.009120
			0.008245 -0.023806 -0.020012
			-0.015596 -0.025531 -0.021521
			-0.019499 -0.021936 -0.007470
			-0.025273 -0.030119 -0.028005
			-0.021208 -0.035128 -0.033898
			-0.017097 -0.026964 0.009459
			-0.018391 -0.021573 0.002262
			-0.026889 -0.032244 0.007051
			-0.024580 -0.029841 0.011343
			-0.018112 -0.029831 0.015722
			-0.007569 -0.028057 0.016739
			0.000731 -0.025650 0.025409
			0.015875 -0.026898 -0.015952
			-0.007323 -0.022541 -0.034519
			-0.019437 -0.027247 -0.034912
			-0.000424 -0.020941 -0.032437
			0.007644 -0.022269 -0.025781
			0.007007 -0.023226 0.019189
			0.010618 -0.023133 0.009376
			-0.004074 -0.018622 0.005941
			-0.012750 -0.018280 0.003970
			0.002864 -0.021066 0.005109
			-0.010394 -0.024319 -0.021341
			-0.011966 -0.017938 -0.002014
			0.004916 -0.021305 0.012380
					56 66 64 54 
					55 65 67 57 
					58 68 66 56 
					57 67 69 59 
					60 70 68 58 
					59 69 70 60 
					62 72 71 61 
					61 71 73 63 
					64 74 72 62 
					63 73 75 65 
					66 76 74 64 
					65 75 77 67 
					68 78 76 66 
					67 77 79 69 
					70 80 78 68 
					69 79 80 70 
					72 82 81 71 
					71 81 83 73 
					74 84 82 72 
					73 83 85 75 
					76 86 84 74 
					75 85 87 77 
					78 88 86 76 
					77 87 89 79 
					80 90 88 78 
					79 89 90 80 
					82 92 91 81 
					81 91 93 83 
					84 94 92 82 
					83 93 95 85 
					86 96 94 84 
					85 95 97 87 
					88 98 96 86 
					87 97 99 89 
					90 100 98 88 
					89 99 100 90 
					92 102 101 91 
					91 101 103 93 
					94 104 102 92 
					93 103 105 95 
					96 106 104 94 
					95 105 107 97 
					98 108 106 96 
					97 107 109 99 
					100 110 108 98 
					99 109 110 100 
					102 112 111 101 
					101 111 113 103 
					104 114 112 102 
					103 113 115 105 
					106 116 114 104 
					105 115 117 107 
					108 118 116 106 
					107 117 119 109 
					110 120 118 108 
					109 119 120 110 
					112 121 111 
					111 121 113 
					114 121 112 
					113 121 115 
					116 121 114 
					115 121 117 
					118 121 116 
					117 121 119 
					120 121 118 
					119 121 120 
				</DataArray>
				<DataArray type="Int32" Name="offsets" format="ascii">
					3 6 9 12 15 18 21 24 27 30 34 38 42 46 50 54 58 62 66 70 74 78 82 86 90 94 98 102 106 110 114 118 122 126 130 134 138 142 146 150 154 158 162 166 170 174 178 182 186 190 194 198 202 206 210 214 218 222 226 230 234 238 242 246 250 254 258 262 266 270 274 278 282 286 290 294 298 302 306 310 314 318 322 326 330 334 338 342 346 350 354 358 362 366 370 374 378 382 386 390 394 398 402 406 410 414 418 422 426 430 434 438 442 446 450 454 458 462 466 470 473 476 479 482 485 488 491 494 497 500 
				</DataArray>
			</Polys>
		</Piece>
	</PolyData>
</VTKFile>
