<?xml version="1.0" encoding="utf-8"?>
<VTKFile byte_order="LittleEndian" compressor="vtkZLibDataCompressor" type="PolyData"
         version="0.1">
   <PolyData>
      <Piece NumberOfLines="0" NumberOfPoints="456" NumberOfPolys="908" NumberOfStrips="0"
             NumberOfVerts="0">
         <PointData Normals="Normals">
            <DataArray Name="Normals" NumberOfComponents="3" format="ascii" type="Float32">
0.011830 0.769227 0.638866
0.090649 0.339365 0.936277
-0.251431 0.594978 0.763403
-0.011972 0.849914 0.526786
0.304212 0.731801 0.609854
0.354639 0.816506 0.455577
-0.354091 0.291650 0.888572
-0.272686 0.020110 0.961893
-0.041970 -0.128079 0.990876
0.302563 0.009660 0.953081
0.511950 0.216774 0.831214
0.494254 0.478885 0.725522
-0.336781 0.792925 0.507788
-0.581485 0.522950 0.623216
-0.051792 0.948950 0.311145
0.294421 0.907854 0.298525
0.669326 0.553330 0.495811
0.609829 0.748387 0.260818
-0.618868 0.089363 0.780395
-0.386935 -0.235791 0.891450
-0.012797 -0.321988 0.946657
0.391279 -0.213477 0.895169
0.606849 -0.077761 0.791004
0.747261 0.196705 0.634750
-0.382839 0.850344 0.361039
-0.634372 0.665947 0.392538
-0.800975 0.289224 0.524203
-0.171986 0.982363 0.073370
0.136113 0.989866 0.040467
0.412938 0.910730 0.007281
0.848209 0.443172 0.290069
0.690157 0.723010 -0.030660
-0.687118 -0.164826 0.707602
-0.369598 -0.429541 0.823949
0.022690 -0.518612 0.854709
0.455328 -0.450298 0.768055
0.745981 -0.218810 0.628995
0.886126 0.079951 0.456497
-0.474409 0.870040 0.134040
-0.747001 0.626689 0.221925
-0.913115 0.271757 0.303923
-0.874164 -0.122609 0.469898
-0.490396 0.857633 -0.154847
-0.190461 0.960547 -0.202669
0.096698 0.964886 -0.244221
0.403823 0.862790 -0.304171
0.984887 0.078440 0.154416
0.900078 0.433464 -0.044371
0.701241 0.619514 -0.352793
-0.632375 -0.470998 0.615030
-0.273142 -0.643830 0.714756
0.181573 -0.688124 0.702507
0.589172 -0.566802 0.575857
0.864623 -0.275454 0.420182
-0.779232 0.623924 -0.059303
-0.967494 0.249269 0.042663
-0.961265 -0.191422 0.198311
-0.722947 -0.494927 0.482073
-0.495873 0.796145 -0.346789
-0.803576 0.557281 -0.209054
-0.186302 0.883379 -0.430037
0.125130 0.847320 -0.516131
0.421117 0.682565 -0.597298
0.991607 -0.109928 -0.068046
0.920373 0.261126 -0.291080
0.655185 0.408957 -0.635205
-0.341326 -0.744877 0.573284
0.157680 -0.775323 0.611565
0.565623 -0.715697 0.409693
0.863273 -0.471317 0.180612
-0.975607 0.219278 -0.010410
-0.968736 -0.214087 0.125369
-0.740500 -0.614363 0.272429
-0.328822 -0.830276 0.450020
-0.328637 0.725779 -0.604353
-0.649490 0.572877 -0.499975
-0.859663 0.295188 -0.416947
-0.066806 0.717589 -0.693256
0.220924 0.584304 -0.780885
0.424553 0.343994 -0.837510
0.907236 -0.275352 -0.317968
0.851410 0.072997 -0.519396
0.590921 0.007563 -0.806694
0.100494 -0.869563 0.483489
0.620571 -0.707669 0.337782
0.820349 -0.571642 0.015920
-0.983798 0.019490 -0.178216
-0.862082 -0.497809 -0.094869
-0.534675 -0.845054 0.002441
-0.292493 -0.951240 0.097929
-0.578466 0.361126 -0.731413
-0.336944 0.304211 -0.891024
-0.761211 0.137306 -0.633802
-0.885650 -0.220917 -0.408436
-0.186381 0.244516 -0.951564
0.138378 0.214342 -0.966907
0.426708 -0.013800 -0.904284
0.700006 -0.613398 -0.365698
0.718248 -0.312349 -0.621738
0.570535 -0.348244 -0.743785
-0.151954 -0.982265 0.109843
0.130007 -0.990226 0.050503
0.455436 -0.888146 -0.061444
-0.727074 -0.686539 -0.005252
-0.378648 -0.909328 0.172478
-0.197181 -0.975375 0.098814
-0.668130 0.207058 -0.714654
-0.426455 0.365731 -0.827271
-0.950728 -0.063698 -0.303413
-0.897621 -0.396135 0.193271
-0.096828 0.466458 -0.879228
0.483960 0.208394 -0.849915
0.478733 -0.740534 -0.471620
0.811700 -0.193260 -0.551175
0.052088 -0.998263 0.027510
0.270646 -0.945738 -0.179809
-0.428407 -0.654160 0.623331
0.149377 -0.842128 0.518177
-0.719122 0.648301 -0.250139
-0.968582 0.240605 -0.062907
-0.041075 0.927394 -0.371824
-0.959192 -0.051127 0.278095
-0.695386 -0.192038 0.692502
0.572932 0.717155 -0.396783
0.961048 0.187824 -0.202755
0.800252 -0.517302 -0.303309
0.972019 -0.198466 -0.125658
0.651215 -0.747816 0.129191
0.005339 -0.452709 0.891643
0.630697 -0.485831 0.605136
-0.139564 0.987879 0.067955
-0.723833 0.677232 0.131995
-0.948785 0.300473 0.097584
-0.958472 0.184618 0.217363
0.523841 0.851656 -0.016502
-0.830004 0.073970 0.552831
-0.397124 -0.089582 0.913383
0.872173 0.482874 -0.078399
0.973017 -0.127231 -0.192484
0.948306 -0.311033 0.063050
0.980364 -0.175114 -0.090672
0.942664 -0.289728 -0.165656
0.444724 -0.378115 0.811942
0.876891 -0.270705 0.397216
-0.052727 0.949417 0.309559
0.542992 0.837863 0.056079
-0.370447 0.516790 0.771814
-0.723495 0.306157 0.618727
-0.624657 0.551585 0.552773
-0.769912 0.318605 0.552925
0.807447 0.524233 -0.270569
-0.757194 0.246803 0.604769
-0.246146 0.193758 0.949668
0.908892 -0.038303 -0.415269
0.942645 -0.202826 -0.265108
0.917381 -0.255535 -0.305145
0.883681 -0.309424 0.351234
0.988452 -0.122006 -0.089875
0.553140 -0.286114 0.782416
0.173344 0.904032 0.390740
0.436015 0.874579 -0.212139
0.753517 0.341668 -0.561671
0.437514 0.333799 0.834961
0.204223 -0.130065 0.970245
0.152507 0.324838 0.933393
-0.254782 0.414477 0.873667
-0.639475 0.320957 0.698612
0.850703 -0.058699 -0.522358
-0.530782 0.554098 0.641284
-0.458617 0.647491 0.608626
0.206453 0.293772 0.933314
0.943138 -0.095578 -0.318362
0.890269 -0.180815 -0.418003
0.909529 -0.176477 -0.376316
0.929908 -0.131078 -0.343642
0.618755 -0.248747 0.745163
0.623338 -0.157928 0.765838
0.890355 0.083877 0.447474
0.241540 0.954323 -0.175857
0.413712 0.357215 -0.837401
0.658156 0.020803 -0.752594
0.146510 0.897918 0.415064
0.082243 0.127130 0.988471
-0.185666 0.102726 0.977228
-0.543124 0.089631 0.834855
-0.712901 0.070310 0.697731
-0.830685 0.382251 0.404780
0.870593 -0.244765 -0.426800
0.829883 -0.100969 -0.548725
-0.613765 0.561258 0.555232
-0.213236 0.248965 0.944747
0.632534 -0.208986 0.745805
0.981994 0.130388 -0.136697
0.907910 0.036310 -0.417589
0.855534 -0.104096 -0.507174
0.986991 -0.009014 0.160523
0.548810 -0.318571 0.772864
0.352343 -0.143625 0.924785
0.564625 -0.005442 0.825330
-0.019197 0.673664 -0.738788
-0.343555 0.906941 -0.243778
0.243864 0.241539 -0.939249
0.576419 0.188479 -0.795121
-0.789452 0.580767 0.198684
-0.874234 0.020405 0.485075
-0.935492 -0.032436 0.351855
-0.927992 -0.214257 0.304835
-0.961471 -0.225381 0.157408
-0.996416 0.026942 0.080187
0.633027 -0.351936 -0.689506
0.734512 -0.162193 -0.658928
-0.684745 -0.205564 0.699191
0.300270 -0.491766 0.817315
0.556559 -0.441075 0.704056
0.980451 0.162720 -0.110628
0.891318 0.152756 -0.426869
0.722128 -0.021571 -0.691423
0.866802 0.064090 0.494516
0.209144 -0.266899 0.940757
0.419762 -0.062286 0.905495
-0.088193 0.430032 -0.898496
-0.524224 0.571768 -0.631087
-0.872452 0.370556 -0.318615
0.244339 0.206845 -0.947372
-0.991039 0.083701 -0.104096
-0.968599 -0.070555 -0.238405
-0.917396 -0.261404 -0.300087
-0.930932 -0.349557 -0.105719
-0.936795 -0.308065 -0.165862
-0.933356 -0.348906 0.084331
-0.902361 -0.428433 0.046793
0.249107 -0.403546 -0.880396
0.327544 -0.336986 -0.882698
-0.330143 -0.772422 0.542558
0.123862 -0.700985 0.702338
0.949985 0.171309 -0.261117
0.908449 0.137133 0.394861
0.775369 0.067481 -0.627893
0.214003 -0.129440 -0.968219
0.589962 0.003220 -0.807424
0.395586 -0.035105 0.917758
-0.137921 -0.309779 0.940752
-0.329762 0.189653 -0.924818
-0.682957 0.151717 -0.714529
-0.834357 0.059584 -0.547995
-0.174598 -0.295981 -0.939101
-0.822928 -0.201557 -0.531192
-0.874239 -0.432174 -0.221206
-0.755870 -0.302216 -0.580797
-0.687503 -0.325601 -0.649095
-0.909871 -0.412672 0.042861
-0.620361 -0.737422 0.267134
-0.226365 -0.383573 -0.895339
0.890466 0.164425 -0.424304
0.901122 0.204271 0.382429
0.370360 0.077452 0.925654
0.011536 -0.097243 -0.995194
-0.350014 -0.210050 -0.912891
0.554770 0.056416 -0.830089
-0.401993 -0.146282 0.903882
-0.668507 -0.351361 0.655472
-0.539541 -0.209236 -0.815546
-0.639260 -0.280837 -0.715875
-0.894927 -0.240442 0.375891
-0.828522 -0.248324 -0.501883
0.762184 0.145747 -0.630741
0.961620 0.200684 0.187115
0.116694 0.065146 0.991029
-0.111786 -0.082440 -0.990307
0.028004 -0.058781 -0.997878
-0.823966 -0.178038 0.537942
-0.872120 -0.254496 -0.417899
0.657004 0.078621 -0.749776
0.981639 0.184783 0.047333
0.209382 0.112054 0.971392
-0.808807 -0.108531 0.577973
-0.174998 -0.147147 -0.973511
-0.921171 -0.246037 -0.301514
0.644873 0.005436 -0.764271
0.987378 0.126313 0.095550
0.239575 0.096770 0.966043
-0.827125 -0.066945 0.558017
-0.950906 -0.175559 -0.254868
-0.302273 -0.153497 -0.940781
0.667941 -0.018608 -0.743982
0.962959 0.116524 0.243170
0.113239 0.124359 0.985754
-0.854180 -0.007287 0.519927
-0.947290 -0.120971 -0.296660
-0.332865 -0.138864 -0.932694
0.688108 -0.044537 -0.724240
0.967346 0.088457 0.237521
0.142562 0.124621 0.981909
-0.842943 0.023892 0.537472
-0.933577 -0.082814 -0.348676
-0.282377 -0.140804 -0.948914
0.561054 -0.094735 -0.822340
0.990705 0.031544 0.132320
0.212261 0.145611 0.966303
-0.780466 0.081749 0.619830
-0.954932 -0.012995 -0.296542
-0.316018 -0.098234 -0.943654
0.020535 -0.086393 -0.996050
0.808427 -0.069389 -0.584491
0.972879 0.010714 0.231067
0.332455 0.145126 0.931886
-0.612839 0.123320 0.780526
-0.986288 0.052881 0.156331
-0.699531 -0.028449 -0.714035
-0.088751 -0.051620 -0.994715
0.724088 -0.083522 -0.684632
0.992260 -0.017733 0.122909
0.449058 0.159442 0.879162
-0.630472 0.194331 0.751492
-0.954568 0.093294 0.283012
-0.831082 0.052035 -0.553710
-0.113215 0.090776 -0.989415
0.661677 0.000842 -0.749788
0.986141 -0.037185 0.161688
0.662778 0.160356 0.731445
-0.517315 0.386152 0.763723
-0.959790 0.173686 0.220535
-0.942026 0.199697 -0.269645
-0.605687 0.540418 -0.584031
0.191069 0.242130 -0.951244
0.872527 0.239849 -0.425639
0.968229 0.134555 0.210781
0.806444 0.156127 0.570327
-0.019122 0.539747 0.841610
-0.902208 0.372638 0.217166
-0.923183 0.360711 0.132746
-0.432068 0.794153 -0.427361
0.122840 0.408202 -0.904589
-0.625883 0.742072 0.239998
0.406391 0.198857 -0.891797
0.815852 0.175349 -0.551034
0.982827 0.098965 0.155748
0.981579 0.136491 0.133689
0.827941 0.297415 0.475456
0.727677 0.419877 0.542393
0.152837 0.693490 0.704069
-0.848578 0.518892 0.103276
-0.793974 0.603878 0.070261
-0.758442 0.637085 0.137431
-0.394640 0.688164 -0.608842
-0.510359 0.810528 0.287362
0.036839 0.345463 -0.937709
0.311135 0.040160 -0.949517
-0.634150 0.603285 0.483634
0.409132 -0.051687 -0.911010
0.905642 -0.137545 -0.401116
0.919433 -0.322741 0.224683
0.953431 -0.280670 -0.110421
0.997457 0.060748 0.037264
0.829968 0.185502 0.526063
0.741634 0.224889 0.631984
0.710249 0.011395 0.703859
0.372065 0.147170 0.916465
-0.245692 0.696980 0.673687
-0.602930 0.779822 0.168382
-0.582996 0.802091 -0.129486
-0.871467 0.488057 0.048429
-0.682311 0.527057 -0.506618
-0.368968 0.132901 -0.919891
-0.775502 0.631265 -0.010083
-0.553044 0.202639 0.808133
-0.708405 0.440556 0.551428
-0.068051 -0.210649 -0.975190
0.219495 -0.275940 -0.935777
-0.955700 -0.233465 0.179252
0.258489 -0.217120 -0.941298
0.396291 -0.184157 -0.899466
0.819294 -0.532809 -0.211831
0.734732 -0.624641 0.264561
0.727458 -0.660640 -0.185362
0.741815 -0.383402 -0.550194
0.963681 -0.208637 0.166703
0.789862 -0.028527 0.612621
0.768860 0.025582 0.638905
0.616303 -0.206803 0.759870
0.263659 -0.124214 0.956585
-0.265623 0.194416 0.944271
-0.456077 0.746288 0.484818
-0.251261 0.963816 0.089028
-0.303252 0.871868 -0.384559
-0.641286 0.394715 -0.657991
-0.680773 0.047702 -0.730940
-0.974073 0.218788 -0.057570
-0.318242 -0.135881 -0.938221
-0.913903 0.044326 0.403505
-0.508920 -0.248063 0.824297
-0.535553 -0.149172 0.831222
-0.095742 -0.155848 -0.983130
0.140186 -0.219007 -0.965600
-0.571505 -0.069603 -0.817642
-0.914265 -0.396528 -0.082976
0.226669 -0.242773 -0.943230
0.420080 -0.673850 -0.607832
0.484855 -0.863571 0.138419
0.361060 -0.908773 0.209204
0.306454 -0.836201 -0.454813
0.661220 -0.700060 -0.269635
0.753369 -0.104584 0.649229
0.687418 -0.141916 0.712262
0.530513 -0.274936 0.801852
0.249080 -0.258192 0.933432
-0.171669 -0.023060 0.984885
-0.688387 0.163314 0.706719
-0.630972 0.765931 -0.123384
-0.510166 0.346810 -0.787054
-0.853209 -0.313704 -0.416683
-0.862522 -0.438283 0.252910
-0.566249 -0.400668 -0.720296
-0.636670 -0.595824 0.489535
-0.358080 -0.534972 0.765234
-0.143893 -0.650226 -0.745990
0.160912 -0.674351 -0.720665
-0.495577 -0.230179 -0.837509
-0.637171 -0.231223 -0.735220
-0.454350 -0.488929 -0.744657
-0.576725 -0.771896 -0.267516
-0.388636 -0.791064 0.472419
0.158087 -0.971887 -0.174483
0.166638 -0.969012 0.182342
-0.050275 -0.971722 -0.230714
-0.071627 -0.922977 0.378130
0.061779 -0.838021 -0.542129
0.267071 -0.891965 -0.364790
0.623178 -0.662234 0.416048
0.567305 -0.130603 0.813085
0.438215 -0.285951 0.852173
0.167697 -0.271719 0.947653
-0.103595 -0.241779 0.964785
-0.767512 -0.382196 0.514637
-0.982330 0.080624 -0.168899
-0.608311 -0.763817 0.215736
-0.419469 -0.782099 0.460834
-0.431627 -0.902028 0.006637
-0.164834 -0.826862 0.537707
-0.098529 -0.994209 -0.042914
-0.561672 -0.557240 -0.611562
-0.865102 -0.465356 -0.187198
-0.382834 -0.684735 -0.620142
-0.294262 -0.694379 -0.656694
-0.054882 -0.975482 0.213126
0.141665 -0.986704 -0.079659
-0.123289 -0.862297 -0.491165
0.413900 -0.462902 0.783842
0.043010 -0.452698 0.890626
-0.436798 -0.569602 0.696248
-0.714675 -0.698365 0.039056
-0.252628 -0.919024 0.302613
-0.526845 -0.803691 -0.276613
-0.224316 -0.967776 -0.114420
-0.025796 -0.900940 0.433175
-0.386401 -0.899922 0.202077
</DataArray>
         </PointData>
         <Points>
            <DataArray NumberOfComponents="3" format="ascii" type="Float32">	-0.002090 0.019231 0.012125
0.003708 0.012179 0.017816
-0.007529 0.016370 0.015002
-0.002083 0.021056 0.008173
0.005318 0.019450 0.010934
0.010051 0.018832 0.007127
-0.010180 0.009784 0.018673
-0.006334 0.002352 0.022705
0.002748 -0.001318 0.023296
0.010614 0.004549 0.020595
0.014209 0.008791 0.014987
0.011680 0.016180 0.010948
-0.007944 0.018680 0.010674
-0.013196 0.012788 0.014469
-0.003211 0.022092 0.002006
0.006120 0.021159 0.001777
0.016745 0.013685 0.007172
0.013637 0.017852 0.000996
-0.013606 0.004835 0.018831
-0.007954 -0.001347 0.022046
0.002704 -0.004438 0.023025
0.011262 -0.001333 0.021006
0.016391 0.001846 0.016556
0.018557 0.006273 0.012372
-0.009980 0.019946 0.004646
-0.015444 0.014937 0.008378
-0.017770 0.007436 0.013506
-0.004682 0.021782 -0.003664
0.001249 0.021723 -0.005446
0.007876 0.019921 -0.006219
0.019428 0.011793 0.000992
0.015374 0.015483 -0.006423
-0.014446 -0.001513 0.018850
-0.006731 -0.006534 0.021826
0.003720 -0.007513 0.022169
0.012461 -0.005473 0.019508
0.018989 -0.001473 0.013560
0.022285 0.004431 0.005406
-0.011298 0.019675 -0.001075
-0.017334 0.015107 0.002512
-0.020961 0.006933 0.008030
-0.019271 -0.000812 0.013734
-0.013310 0.017515 -0.006985
-0.006941 0.019788 -0.008827
-0.000675 0.019865 -0.011054
0.005571 0.018147 -0.012700
0.023566 0.002059 0.002538
0.020414 0.010082 -0.004646
0.014025 0.012034 -0.013622
-0.013065 -0.007376 0.018300
-0.004642 -0.010374 0.020564
0.005199 -0.011995 0.019838
0.015359 -0.008524 0.015592
0.020953 -0.005044 0.009806
-0.018851 0.013006 -0.003436
-0.022529 0.005518 0.002503
-0.021429 -0.003629 0.008823
-0.015233 -0.010039 0.014799
-0.015443 0.013651 -0.010618
-0.021073 0.008663 -0.005066
-0.008417 0.016272 -0.013869
-0.000700 0.015617 -0.016772
0.006677 0.011926 -0.018654
0.023193 -0.003154 -0.002672
0.019731 0.005069 -0.010931
0.012354 0.006763 -0.018730
-0.006212 -0.012815 0.018626
0.004956 -0.014291 0.018297
0.015567 -0.012128 0.012581
0.022106 -0.007570 0.005039
-0.023354 -0.000369 0.000826
-0.020805 -0.008134 0.007162
-0.013360 -0.012462 0.015595
-0.003410 -0.014675 0.017956
-0.009094 0.012735 -0.017230
-0.015553 0.010824 -0.013887
-0.020886 0.005489 -0.008969
-0.003376 0.011188 -0.020474
0.001421 0.009182 -0.021709
0.006045 0.004108 -0.022199
0.020265 -0.005663 -0.010523
0.017570 -0.000167 -0.015798
0.012135 -0.003803 -0.019963
0.008248 -0.015719 0.015491
0.016353 -0.015149 0.006224
0.020552 -0.011562 -0.001754
-0.023690 -0.001886 -0.003298
-0.022044 -0.008237 0.002743
-0.014715 -0.013528 0.009457
-0.005480 -0.015574 0.013284
-0.016351 0.006255 -0.015737
-0.009532 0.007388 -0.019849
-0.020053 0.000197 -0.010465
-0.020906 -0.006887 -0.006549
-0.003505 0.004905 -0.022920
0.003015 0.000959 -0.023234
0.006404 -0.006135 -0.021967
0.017703 -0.015448 -0.004226
0.015970 -0.009468 -0.014584
0.010493 -0.012366 -0.016822
0.002965 -0.017264 0.012668
0.008826 -0.018090 0.010071
0.014961 -0.017327 0.003074
-0.016992 -0.013463 0.002316
-0.009139 -0.016295 0.006637
-0.001481 -0.018125 0.007385
-0.014668 -0.005689 -0.014145
-0.008534 -0.000688 -0.017611
-0.017702 -0.013078 -0.008858
-0.014443 -0.018765 -0.001827
-0.003128 -0.003291 -0.020534
0.002998 -0.006917 -0.022816
0.012125 -0.017236 -0.009943
0.006782 -0.013237 -0.019154
0.004946 -0.018583 0.004851
0.010365 -0.018746 -0.001106
-0.008185 -0.021554 0.001519
0.000856 -0.022420 -0.000531
-0.014188 -0.013449 -0.021491
-0.017604 -0.020412 -0.015259
-0.007431 -0.009425 -0.025510
-0.015500 -0.024831 -0.008106
-0.012537 -0.029858 -0.003846
-0.000521 -0.012809 -0.027990
0.003117 -0.019989 -0.026243
0.008297 -0.017785 -0.013261
0.003618 -0.026512 -0.022223
0.007360 -0.020931 -0.006838
-0.007101 -0.031982 -0.002225
-0.000385 -0.032975 -0.005797
-0.010133 -0.011691 -0.031348
-0.015212 -0.016049 -0.025785
-0.018067 -0.023259 -0.019203
-0.017988 -0.030191 -0.013452
-0.004414 -0.014160 -0.034735
-0.014962 -0.036454 -0.005111
-0.011916 -0.038098 -0.002284
0.000707 -0.018368 -0.035245
0.003522 -0.024212 -0.034202
0.003477 -0.031984 -0.015717
0.001803 -0.037883 -0.023147
0.001772 -0.029597 -0.030074
-0.002298 -0.041650 -0.006349
0.002725 -0.041724 -0.013377
-0.011737 -0.011930 -0.037848
-0.006347 -0.013499 -0.040384
-0.018690 -0.016031 -0.032831
-0.019880 -0.023905 -0.030613
-0.020552 -0.031082 -0.023202
-0.020368 -0.038456 -0.012853
-0.001989 -0.017250 -0.042227
-0.017462 -0.043972 -0.006191
-0.014647 -0.047040 -0.000769
-0.000557 -0.022321 -0.042159
-0.001168 -0.036343 -0.031703
-0.001529 -0.028603 -0.038516
0.002082 -0.049280 -0.012700
0.000884 -0.043634 -0.023209
-0.006047 -0.048995 -0.005017
-0.015772 -0.011329 -0.042547
-0.010374 -0.012238 -0.047358
-0.006230 -0.018471 -0.048036
-0.026550 -0.010693 -0.030670
-0.027693 -0.020648 -0.032418
-0.027750 -0.029537 -0.028910
-0.027999 -0.035156 -0.021396
-0.025379 -0.041765 -0.016242
-0.004934 -0.027566 -0.045645
-0.021593 -0.047921 -0.008361
-0.019380 -0.051058 -0.002992
-0.016600 -0.052351 0.003477
-0.003872 -0.042283 -0.035539
-0.005315 -0.036142 -0.040598
0.001691 -0.053557 -0.021901
-0.001250 -0.047743 -0.028553
-0.011961 -0.056764 -0.002359
-0.001821 -0.058058 -0.009145
0.003308 -0.055713 -0.014856
-0.016462 -0.011420 -0.047191
-0.009423 -0.021094 -0.050351
-0.007410 -0.030631 -0.047225
-0.027182 -0.008059 -0.033368
-0.033190 -0.010912 -0.026732
-0.034320 -0.025562 -0.026583
-0.033435 -0.035494 -0.021669
-0.030769 -0.045071 -0.017994
-0.026820 -0.050715 -0.009814
-0.006729 -0.046741 -0.039027
-0.007081 -0.040236 -0.045068
-0.025562 -0.053436 0.000859
-0.021843 -0.057767 0.005767
-0.016401 -0.060062 0.003995
0.002475 -0.058420 -0.020811
-0.000261 -0.057254 -0.026848
-0.003816 -0.052314 -0.033672
0.003106 -0.061175 -0.014599
-0.013942 -0.061335 -0.002609
-0.007356 -0.062502 -0.007398
-0.001750 -0.063058 -0.009775
-0.020223 -0.014240 -0.049826
-0.030511 -0.009985 -0.038966
-0.015482 -0.023781 -0.051935
-0.013107 -0.032986 -0.051439
-0.037211 -0.010871 -0.030321
-0.038070 -0.027078 -0.027823
-0.038308 -0.036340 -0.025915
-0.036240 -0.045427 -0.023986
-0.028010 -0.054457 -0.016730
-0.027842 -0.057866 -0.002029
-0.011147 -0.049457 -0.042952
-0.010842 -0.042760 -0.049341
-0.024079 -0.061091 0.004163
-0.017879 -0.063809 0.002963
-0.014139 -0.065481 -0.005158
0.003043 -0.064511 -0.022728
-0.001670 -0.059067 -0.031192
-0.007476 -0.058713 -0.036239
0.004421 -0.067302 -0.016669
-0.007271 -0.068187 -0.008257
0.000354 -0.068881 -0.010935
-0.023089 -0.019202 -0.050315
-0.035503 -0.016104 -0.042623
-0.038780 -0.018360 -0.034988
-0.018398 -0.032204 -0.054609
-0.039247 -0.026596 -0.034441
-0.038274 -0.037580 -0.033975
-0.035407 -0.045862 -0.032191
-0.029290 -0.060731 -0.023599
-0.024636 -0.063127 -0.013882
-0.024079 -0.066270 -0.021614
-0.027301 -0.064711 -0.003450
-0.015906 -0.051512 -0.043722
-0.014887 -0.043040 -0.052436
-0.022975 -0.066347 0.001965
-0.015461 -0.070437 -0.007558
0.003365 -0.071803 -0.026463
0.005085 -0.073773 -0.016601
-0.002812 -0.070075 -0.033538
-0.012967 -0.059049 -0.039820
-0.007436 -0.068920 -0.037612
-0.000962 -0.074800 -0.010583
-0.009186 -0.073191 -0.008840
-0.024704 -0.033027 -0.052517
-0.033168 -0.030974 -0.047675
-0.036625 -0.031988 -0.041702
-0.021587 -0.045855 -0.049455
-0.034732 -0.041352 -0.041171
-0.025092 -0.067541 -0.029115
-0.027700 -0.059393 -0.031522
-0.030724 -0.053252 -0.035551
-0.020092 -0.077659 -0.023831
-0.021446 -0.070394 -0.011525
-0.021835 -0.054839 -0.040716
0.008010 -0.087996 -0.024632
0.008405 -0.087971 -0.017210
0.002617 -0.089092 -0.011779
-0.013640 -0.069809 -0.038705
-0.019057 -0.064121 -0.036441
-0.000774 -0.087892 -0.034175
-0.006367 -0.089677 -0.012032
-0.009414 -0.080887 -0.011685
-0.028652 -0.044786 -0.046355
-0.020968 -0.068779 -0.034776
-0.013052 -0.092844 -0.019322
-0.015074 -0.090691 -0.034018
0.010972 -0.119260 -0.030952
0.014198 -0.111878 -0.019326
0.008108 -0.117522 -0.009758
-0.009190 -0.089904 -0.038486
-0.001488 -0.119967 -0.037136
-0.005150 -0.119244 -0.016630
-0.007336 -0.121447 -0.033635
0.016494 -0.149664 -0.032545
0.021906 -0.147262 -0.021341
0.013832 -0.147400 -0.008402
0.002548 -0.150412 -0.015360
0.006885 -0.151671 -0.035253
0.000137 -0.152863 -0.029558
0.022197 -0.181759 -0.031581
0.026717 -0.178928 -0.021098
0.018803 -0.178501 -0.007903
0.007049 -0.178501 -0.014294
0.005615 -0.180874 -0.026149
0.011689 -0.180298 -0.033605
0.024851 -0.209266 -0.030054
0.029059 -0.207323 -0.016065
0.018449 -0.207427 -0.007220
0.009983 -0.209613 -0.013042
0.009049 -0.210906 -0.024655
0.014971 -0.210823 -0.031738
0.027997 -0.244056 -0.027180
0.031365 -0.242253 -0.014495
0.021871 -0.241213 -0.004993
0.012082 -0.241625 -0.010031
0.010881 -0.244664 -0.021876
0.018202 -0.244865 -0.029369
0.029981 -0.276403 -0.023293
0.032838 -0.274774 -0.012524
0.023257 -0.272555 -0.002401
0.012237 -0.274173 -0.007849
0.011678 -0.276768 -0.021008
0.019372 -0.278138 -0.026510
0.019332 -0.308316 -0.024466
0.026971 -0.308036 -0.022788
0.031980 -0.306390 -0.008605
0.025384 -0.304964 0.000539
0.015846 -0.304764 -0.001902
0.009663 -0.306031 -0.010430
0.011545 -0.308104 -0.021103
0.017057 -0.340936 -0.023173
0.027914 -0.341362 -0.020735
0.031231 -0.341975 -0.006944
0.023325 -0.339127 0.004897
0.013723 -0.337668 0.002362
0.008783 -0.338408 -0.007577
0.008142 -0.339873 -0.019028
0.014136 -0.367594 -0.023573
0.028400 -0.370537 -0.018002
0.027954 -0.368677 -0.002163
0.023395 -0.365528 0.008140
0.012596 -0.362593 0.009836
0.006367 -0.367778 -0.006243
0.004884 -0.367109 -0.019901
0.000248 -0.379953 -0.023606
0.013084 -0.381437 -0.026328
0.027499 -0.386524 -0.021629
0.027315 -0.384931 -0.000392
0.019953 -0.378024 0.013004
0.010093 -0.375358 0.017522
0.006001 -0.377939 0.008604
0.004376 -0.380700 -0.003900
-0.005393 -0.386908 -0.029111
0.009417 -0.394172 -0.032120
-0.002827 -0.386950 -0.015069
0.020402 -0.397334 -0.029406
0.032814 -0.397236 -0.022012
0.030595 -0.395803 -0.009333
0.028861 -0.395923 0.001007
0.024914 -0.391159 0.012309
0.018710 -0.388099 0.019920
0.004828 -0.387986 0.032758
0.009144 -0.382211 0.022783
0.002258 -0.386063 0.012846
0.001332 -0.387863 -0.000840
-0.011961 -0.391566 -0.029637
-0.012186 -0.390087 -0.014888
-0.000275 -0.398518 -0.036690
0.007765 -0.402182 -0.034805
-0.009088 -0.392127 -0.009640
0.018920 -0.404484 -0.030116
0.032902 -0.405952 -0.022247
0.030232 -0.405345 -0.009686
0.027703 -0.406431 -0.000644
0.030531 -0.405352 0.006931
0.023789 -0.399990 0.017170
0.017083 -0.394771 0.026754
0.015372 -0.402297 0.029554
0.009740 -0.397918 0.036172
0.000975 -0.394027 0.036903
-0.002898 -0.391301 0.025409
-0.003936 -0.392524 0.015992
-0.004313 -0.394464 0.001358
-0.019315 -0.397000 -0.028132
-0.012413 -0.402755 -0.035731
-0.020486 -0.395546 -0.022485
-0.013450 -0.400649 -0.006858
-0.019200 -0.397443 -0.012507
-0.004824 -0.406224 -0.037628
0.005202 -0.408443 -0.034806
-0.004591 -0.400066 0.000970
0.014830 -0.411899 -0.030451
0.021947 -0.413354 -0.028552
0.028592 -0.414204 -0.023419
0.027258 -0.413645 -0.011555
0.023060 -0.412977 -0.000879
0.027359 -0.413810 0.005224
0.031026 -0.414385 0.009310
0.027550 -0.410568 0.015435
0.022468 -0.407738 0.020543
0.013031 -0.409421 0.030167
0.004824 -0.402633 0.037628
-0.009298 -0.397554 0.035515
-0.017566 -0.394122 0.027478
-0.005686 -0.393543 0.027860
-0.012236 -0.392955 0.018433
-0.010284 -0.398362 0.012483
-0.023783 -0.406220 -0.030223
-0.024959 -0.404414 -0.023714
-0.015202 -0.410292 -0.031108
-0.022988 -0.405472 -0.014433
-0.005308 -0.408388 -0.006823
-0.018816 -0.408765 -0.009264
-0.009132 -0.413578 -0.032898
0.000545 -0.416642 -0.032570
-0.003337 -0.408863 0.008795
0.001689 -0.410554 0.001186
0.014097 -0.417720 -0.029257
0.020491 -0.421304 -0.026471
0.020311 -0.421241 -0.015215
0.016796 -0.417887 -0.005184
0.018396 -0.418868 0.003280
0.026726 -0.421107 0.010691
0.025205 -0.417231 0.017918
0.019397 -0.413299 0.022148
0.010578 -0.414317 0.030513
0.000397 -0.411863 0.035794
-0.009689 -0.409211 0.036175
-0.022736 -0.408518 0.033296
-0.019783 -0.395822 0.020487
-0.019043 -0.403336 0.012733
-0.023886 -0.412954 -0.028519
-0.024375 -0.410552 -0.020086
-0.018479 -0.417224 -0.032330
-0.017494 -0.415397 -0.012962
-0.007925 -0.416280 -0.008166
-0.010256 -0.422335 -0.032869
0.003120 -0.423059 -0.030607
-0.015510 -0.415554 0.013776
-0.020542 -0.409831 0.013941
-0.006817 -0.422000 0.013327
0.004846 -0.416357 0.000432
0.004736 -0.417706 -0.006339
0.011093 -0.423568 -0.026485
0.011812 -0.424598 -0.018470
0.010714 -0.418415 -0.000539
0.009960 -0.421177 -0.009923
0.011753 -0.421603 0.004630
0.016987 -0.425625 0.012163
0.019878 -0.425175 0.021438
0.014965 -0.418886 0.025153
0.007382 -0.420808 0.029198
0.001106 -0.417849 0.033892
-0.009720 -0.415455 0.035528
-0.020209 -0.414476 0.033413
-0.024482 -0.403513 0.020683
-0.016920 -0.419300 -0.019088
-0.011968 -0.418955 -0.013392
-0.014226 -0.421751 -0.025097
-0.001221 -0.420783 -0.011535
-0.003397 -0.424534 -0.023943
-0.016699 -0.420793 0.017889
-0.023190 -0.415806 0.022676
-0.006066 -0.426428 0.015533
0.003960 -0.421652 0.006913
0.003665 -0.424559 -0.017867
0.006767 -0.430363 0.020581
0.002181 -0.429172 0.015118
0.009659 -0.428067 0.027432
-0.006606 -0.425121 0.033696
-0.015949 -0.422695 0.031049
-0.018080 -0.422181 0.023897
-0.007064 -0.422840 -0.017636
-0.011267 -0.426908 0.020629
-0.003944 -0.429494 0.020289
-0.000910 -0.428210 0.031016
-0.010415 -0.427177 0.026879
</DataArray>
         </Points>
         <Polys>
            <DataArray Name="connectivity" format="ascii" type="Int32">