<?xml version="1.0" encoding="utf-8"?>
<VTKFile byte_order="LittleEndian" compressor="vtkZLibDataCompressor" type="PolyData"
         version="0.1">
   <PolyData>
      <Piece NumberOfLines="0" NumberOfPoints="456" NumberOfPolys="908" NumberOfStrips="0"
             NumberOfVerts="0">
         <PointData Normals="Normals">
            <DataArray Name="Normals" NumberOfComponents="3" format="ascii" type="Float32">
0.011830 0.769227 -0.638866
0.090649 0.339365 -0.936277
-0.251431 0.594978 -0.763403
0.304212 0.731801 -0.609854
-0.011972 0.849914 -0.526786
0.354639 0.816506 -0.455577
-0.354091 0.291650 -0.888572
-0.272686 0.020110 -0.961893
-0.041970 -0.128079 -0.990876
0.302563 0.009660 -0.953081
0.511950 0.216774 -0.831214
0.494254 0.478885 -0.725522
-0.336781 0.792925 -0.507788
-0.581485 0.522950 -0.623216
0.669326 0.553330 -0.495811
-0.051792 0.948950 -0.311145
0.294421 0.907854 -0.298525
0.609829 0.748387 -0.260818
-0.618868 0.089363 -0.780395
-0.386935 -0.235791 -0.891450
-0.012797 -0.321988 -0.946657
0.391279 -0.213477 -0.895169
0.606849 -0.077761 -0.791004
0.747261 0.196705 -0.634750
-0.382839 0.850344 -0.361039
-0.634372 0.665947 -0.392538
-0.800975 0.289224 -0.524203
0.848209 0.443172 -0.290069
-0.171986 0.982363 -0.073370
0.136113 0.989866 -0.040467
0.412938 0.910730 -0.007281
0.690157 0.723010 0.030660
-0.687118 -0.164826 -0.707602
-0.369598 -0.429541 -0.823949
0.022690 -0.518612 -0.854709
0.455328 -0.450298 -0.768055
0.745981 -0.218810 -0.628995
0.886126 0.079951 -0.456497
-0.474409 0.870040 -0.134040
-0.747001 0.626689 -0.221925
-0.913115 0.271757 -0.303923
-0.874164 -0.122609 -0.469898
0.984887 0.078440 -0.154416
0.900078 0.433464 0.044371
-0.490396 0.857633 0.154847
-0.190461 0.960547 0.202669
0.096698 0.964886 0.244221
0.403823 0.862790 0.304171
0.701241 0.619514 0.352793
-0.632375 -0.470998 -0.615030
-0.273142 -0.643830 -0.714756
0.181573 -0.688124 -0.702507
0.589172 -0.566802 -0.575857
0.864623 -0.275454 -0.420182
-0.779232 0.623924 0.059303
-0.967494 0.249269 -0.042663
-0.961265 -0.191422 -0.198311
-0.722947 -0.494927 -0.482073
0.991607 -0.109928 0.068046
0.920373 0.261126 0.291080
-0.495873 0.796145 0.346789
-0.803576 0.557281 0.209054
-0.186302 0.883379 0.430037
0.125130 0.847320 0.516131
0.421117 0.682565 0.597298
0.655185 0.408957 0.635205
-0.341326 -0.744877 -0.573284
0.157680 -0.775323 -0.611565
0.565623 -0.715697 -0.409693
0.863273 -0.471317 -0.180612
-0.975607 0.219278 0.010410
-0.968736 -0.214087 -0.125369
-0.740500 -0.614363 -0.272429
-0.328822 -0.830276 -0.450020
0.907236 -0.275352 0.317968
0.851410 0.072997 0.519396
-0.328637 0.725779 0.604353
-0.649490 0.572877 0.499975
-0.859663 0.295188 0.416947
-0.066806 0.717589 0.693256
0.220924 0.584304 0.780885
0.424553 0.343994 0.837510
0.590921 0.007563 0.806694
0.100494 -0.869563 -0.483489
0.620571 -0.707669 -0.337782
0.820349 -0.571642 -0.015920
-0.983798 0.019490 0.178216
-0.862082 -0.497809 0.094869
-0.534675 -0.845054 -0.002441
-0.292493 -0.951240 -0.097929
0.700006 -0.613398 0.365698
0.718248 -0.312349 0.621738
-0.578466 0.361126 0.731413
-0.336944 0.304211 0.891024
-0.761211 0.137306 0.633802
-0.885650 -0.220917 0.408436
-0.186381 0.244516 0.951564
0.138378 0.214342 0.966907
0.426708 -0.013800 0.904284
0.570535 -0.348244 0.743785
-0.151954 -0.982265 -0.109843
0.130007 -0.990226 -0.050503
0.455436 -0.888146 0.061444
-0.727074 -0.686539 0.005252
-0.378648 -0.909328 -0.172478
-0.197181 -0.975375 -0.098814
0.478733 -0.740534 0.471620
-0.668130 0.207058 0.714654
-0.426455 0.365731 0.827271
-0.950728 -0.063698 0.303413
-0.897621 -0.396135 -0.193271
-0.096828 0.466458 0.879228
0.483960 0.208394 0.849915
0.811700 -0.193260 0.551175
0.052088 -0.998263 -0.027510
0.270646 -0.945738 0.179809
-0.428407 -0.654160 -0.623331
0.149377 -0.842128 -0.518177
0.800252 -0.517302 0.303309
-0.719122 0.648301 0.250139
-0.968582 0.240605 0.062907
-0.041075 0.927394 0.371824
-0.959192 -0.051127 -0.278095
-0.695386 -0.192038 -0.692502
0.572932 0.717155 0.396783
0.961048 0.187824 0.202755
0.972019 -0.198466 0.125658
0.651215 -0.747816 -0.129191
0.005339 -0.452709 -0.891643
0.630697 -0.485831 -0.605136
0.948306 -0.311033 -0.063050
-0.139564 0.987879 -0.067955
-0.723833 0.677232 -0.131995
-0.948785 0.300473 -0.097584
-0.958472 0.184618 -0.217363
0.523841 0.851656 0.016502
-0.830004 0.073970 -0.552831
-0.397124 -0.089582 -0.913383
0.872173 0.482874 0.078399
0.973017 -0.127231 0.192484
0.980364 -0.175114 0.090672
0.942664 -0.289728 0.165656
0.444724 -0.378115 -0.811942
0.876891 -0.270705 -0.397216
-0.052727 0.949417 -0.309559
0.542992 0.837863 -0.056079
-0.370447 0.516790 -0.771814
-0.723495 0.306157 -0.618727
-0.624657 0.551585 -0.552773
-0.769912 0.318605 -0.552925
0.807447 0.524233 0.270569
-0.757194 0.246803 -0.604769
-0.246146 0.193758 -0.949668
0.908892 -0.038303 0.415269
0.942645 -0.202826 0.265108
0.917381 -0.255535 0.305145
0.883681 -0.309424 -0.351234
0.988452 -0.122006 0.089875
0.553140 -0.286114 -0.782416
0.173344 0.904032 -0.390740
0.436015 0.874579 0.212139
0.753517 0.341668 0.561671
0.437514 0.333799 -0.834961
0.204223 -0.130065 -0.970245
0.152507 0.324838 -0.933393
-0.254782 0.414477 -0.873667
-0.639475 0.320957 -0.698612
0.850703 -0.058699 0.522358
-0.530782 0.554098 -0.641284
-0.458617 0.647491 -0.608626
0.206453 0.293772 -0.933314
0.943138 -0.095578 0.318362
0.890269 -0.180815 0.418003
0.909529 -0.176477 0.376316
0.929908 -0.131078 0.343642
0.618755 -0.248747 -0.745163
0.623338 -0.157928 -0.765838
0.890355 0.083877 -0.447474
0.241540 0.954323 0.175857
0.413712 0.357215 0.837401
0.658156 0.020803 0.752594
0.146510 0.897918 -0.415064
0.082243 0.127130 -0.988471
-0.185666 0.102726 -0.977228
-0.543124 0.089631 -0.834855
-0.712901 0.070310 -0.697731
-0.830685 0.382251 -0.404780
0.870593 -0.244765 0.426800
0.829883 -0.100969 0.548725
-0.613765 0.561258 -0.555232
-0.213236 0.248965 -0.944747
0.632534 -0.208986 -0.745805
0.981994 0.130388 0.136697
0.907910 0.036310 0.417589
0.855534 -0.104096 0.507174
0.986991 -0.009014 -0.160523
0.548810 -0.318571 -0.772864
0.352343 -0.143625 -0.924785
0.564625 -0.005442 -0.825330
-0.019197 0.673664 0.738788
-0.343555 0.906941 0.243778
0.243864 0.241539 0.939249
0.576419 0.188479 0.795121
-0.789452 0.580767 -0.198684
-0.874234 0.020405 -0.485075
-0.935492 -0.032436 -0.351855
-0.927992 -0.214257 -0.304835
-0.961471 -0.225381 -0.157408
-0.996416 0.026942 -0.080187
0.633027 -0.351936 0.689506
0.734512 -0.162193 0.658928
-0.684745 -0.205564 -0.699191
0.300270 -0.491766 -0.817315
0.556559 -0.441075 -0.704056
0.980451 0.162720 0.110628
0.891318 0.152756 0.426869
0.722128 -0.021571 0.691423
0.866802 0.064090 -0.494516
0.209144 -0.266899 -0.940757
0.419762 -0.062286 -0.905495
-0.088193 0.430032 0.898496
-0.524224 0.571768 0.631087
-0.872452 0.370556 0.318615
0.244339 0.206845 0.947372
-0.991039 0.083701 0.104096
-0.968599 -0.070555 0.238405
-0.917396 -0.261404 0.300087
-0.930932 -0.349557 0.105719
-0.936795 -0.308065 0.165862
-0.933356 -0.348906 -0.084331
-0.902361 -0.428433 -0.046793
0.249107 -0.403546 0.880396
0.327544 -0.336986 0.882698
-0.330143 -0.772422 -0.542558
0.123862 -0.700985 -0.702338
0.949985 0.171309 0.261117
0.908449 0.137133 -0.394861
0.775369 0.067481 0.627893
0.214003 -0.129440 0.968219
0.589962 0.003220 0.807424
0.395586 -0.035105 -0.917758
-0.137921 -0.309779 -0.940752
-0.329762 0.189653 0.924818
-0.682957 0.151717 0.714529
-0.834357 0.059584 0.547995
-0.174598 -0.295981 0.939101
-0.822928 -0.201557 0.531192
-0.874239 -0.432174 0.221206
-0.755870 -0.302216 0.580797
-0.687503 -0.325601 0.649095
-0.620361 -0.737422 -0.267134
-0.909871 -0.412672 -0.042861
-0.226365 -0.383573 0.895339
0.890466 0.164425 0.424304
0.901122 0.204271 -0.382429
0.370360 0.077452 -0.925654
-0.350014 -0.210050 0.912891
0.011536 -0.097243 0.995194
0.554770 0.056416 0.830089
-0.401993 -0.146282 -0.903882
-0.668507 -0.351361 -0.655472
-0.539541 -0.209236 0.815546
-0.639260 -0.280837 0.715875
-0.894927 -0.240442 -0.375891
-0.828522 -0.248324 0.501883
0.762184 0.145747 0.630741
0.961620 0.200684 -0.187115
0.116694 0.065146 -0.991029
-0.111786 -0.082440 0.990307
0.028004 -0.058781 0.997878
-0.823966 -0.178038 -0.537942
-0.872120 -0.254496 0.417899
0.657004 0.078621 0.749776
0.981639 0.184783 -0.047333
0.209382 0.112054 -0.971392
-0.808807 -0.108531 -0.577973
-0.174998 -0.147147 0.973511
-0.921171 -0.246037 0.301514
0.644873 0.005436 0.764271
0.987378 0.126313 -0.095550
0.239575 0.096770 -0.966043
-0.827125 -0.066945 -0.558017
-0.950906 -0.175559 0.254868
-0.302273 -0.153497 0.940781
0.667941 -0.018608 0.743982
0.962959 0.116524 -0.243170
0.113239 0.124359 -0.985754
-0.854180 -0.007287 -0.519927
-0.947290 -0.120971 0.296660
-0.332865 -0.138864 0.932694
0.688108 -0.044537 0.724240
0.967346 0.088457 -0.237521
0.142562 0.124621 -0.981909
-0.842943 0.023892 -0.537472
-0.933577 -0.082814 0.348676
-0.282377 -0.140804 0.948914
0.561054 -0.094735 0.822340
0.990705 0.031544 -0.132320
0.212261 0.145611 -0.966303
-0.780466 0.081749 -0.619830
-0.954932 -0.012995 0.296542
-0.316018 -0.098234 0.943654
0.020535 -0.086393 0.996050
0.808427 -0.069389 0.584491
0.972879 0.010714 -0.231067
0.332455 0.145126 -0.931886
-0.612839 0.123320 -0.780526
-0.986288 0.052881 -0.156331
-0.699531 -0.028449 0.714035
-0.088751 -0.051620 0.994715
0.724088 -0.083522 0.684632
0.992260 -0.017733 -0.122909
0.449058 0.159442 -0.879162
-0.630472 0.194331 -0.751492
-0.954568 0.093294 -0.283012
-0.831082 0.052035 0.553710
-0.113215 0.090776 0.989415
0.661677 0.000842 0.749788
0.986141 -0.037185 -0.161688
0.662778 0.160356 -0.731445
-0.517315 0.386152 -0.763723
-0.959790 0.173686 -0.220535
-0.942026 0.199697 0.269645
-0.605687 0.540418 0.584031
0.191069 0.242130 0.951244
0.872527 0.239849 0.425639
0.968229 0.134555 -0.210781
0.806444 0.156127 -0.570327
-0.019122 0.539747 -0.841610
-0.902208 0.372638 -0.217166
-0.923183 0.360711 -0.132746
-0.432068 0.794153 0.427361
0.122840 0.408202 0.904589
-0.625883 0.742072 -0.239998
0.406391 0.198857 0.891797
0.815852 0.175349 0.551034
0.982827 0.098965 -0.155748
0.981579 0.136491 -0.133689
0.827941 0.297415 -0.475456
0.727677 0.419877 -0.542393
0.152837 0.693490 -0.704069
-0.848578 0.518892 -0.103276
-0.793974 0.603878 -0.070261
-0.758442 0.637085 -0.137431
-0.394640 0.688164 0.608842
-0.510359 0.810528 -0.287362
0.036839 0.345463 0.937709
0.311135 0.040160 0.949517
-0.634150 0.603285 -0.483634
0.409132 -0.051687 0.911010
0.905642 -0.137545 0.401116
0.919433 -0.322741 -0.224683
0.953431 -0.280670 0.110421
0.997457 0.060748 -0.037264
0.829968 0.185502 -0.526063
0.741634 0.224889 -0.631984
0.710249 0.011395 -0.703859
0.372065 0.147170 -0.916465
-0.245692 0.696980 -0.673687
-0.602930 0.779822 -0.168382
-0.582996 0.802091 0.129486
-0.871467 0.488057 -0.048429
-0.682311 0.527057 0.506618
-0.368968 0.132901 0.919891
-0.775502 0.631265 0.010083
-0.553044 0.202639 -0.808133
-0.708405 0.440556 -0.551428
-0.068051 -0.210649 0.975190
0.219495 -0.275940 0.935777
-0.955700 -0.233465 -0.179252
0.258489 -0.217120 0.941298
0.396291 -0.184157 0.899466
0.819294 -0.532809 0.211831
0.734732 -0.624641 -0.264561
0.727458 -0.660640 0.185362
0.741815 -0.383402 0.550194
0.963681 -0.208637 -0.166703
0.789862 -0.028527 -0.612621
0.768860 0.025582 -0.638905
0.616303 -0.206803 -0.759870
0.263659 -0.124214 -0.956585
-0.265623 0.194416 -0.944271
-0.456077 0.746288 -0.484818
-0.251261 0.963816 -0.089028
-0.303252 0.871868 0.384559
-0.641286 0.394715 0.657991
-0.974073 0.218788 0.057570
-0.680773 0.047702 0.730940
-0.318242 -0.135881 0.938221
-0.913903 0.044326 -0.403505
-0.508920 -0.248063 -0.824297
-0.535553 -0.149172 -0.831222
-0.095742 -0.155848 0.983130
0.140186 -0.219007 0.965600
-0.571505 -0.069603 0.817642
-0.914265 -0.396528 0.082976
0.226669 -0.242773 0.943230
0.420080 -0.673850 0.607832
0.484855 -0.863571 -0.138419
0.361060 -0.908773 -0.209204
0.306454 -0.836201 0.454813
0.661220 -0.700060 0.269635
0.753369 -0.104584 -0.649229
0.687418 -0.141916 -0.712262
0.530513 -0.274936 -0.801852
0.249080 -0.258192 -0.933432
-0.171669 -0.023060 -0.984885
-0.688387 0.163314 -0.706719
-0.630972 0.765931 0.123384
-0.510166 0.346810 0.787054
-0.862522 -0.438283 -0.252910
-0.853209 -0.313704 0.416683
-0.566249 -0.400668 0.720296
-0.636670 -0.595824 -0.489535
-0.358080 -0.534972 -0.765234
-0.143893 -0.650226 0.745990
0.160912 -0.674351 0.720665
-0.637171 -0.231223 0.735220
-0.495577 -0.230179 0.837509
-0.454350 -0.488929 0.744657
-0.576725 -0.771896 0.267516
-0.388636 -0.791064 -0.472419
0.158087 -0.971887 0.174483
0.166638 -0.969012 -0.182342
-0.050275 -0.971722 0.230714
-0.071627 -0.922977 -0.378130
0.061779 -0.838021 0.542129
0.267071 -0.891965 0.364790
0.623178 -0.662234 -0.416048
0.567305 -0.130603 -0.813085
0.438215 -0.285951 -0.852173
0.167697 -0.271719 -0.947653
-0.103595 -0.241779 -0.964785
-0.767512 -0.382196 -0.514637
-0.982330 0.080624 0.168899
-0.419469 -0.782099 -0.460834
-0.608311 -0.763817 -0.215736
-0.431627 -0.902028 -0.006637
-0.164834 -0.826862 -0.537707
-0.098529 -0.994209 0.042914
-0.865102 -0.465356 0.187198
-0.561672 -0.557240 0.611562
-0.382834 -0.684735 0.620142
-0.294262 -0.694379 0.656694
-0.054882 -0.975482 -0.213126
-0.123289 -0.862297 0.491165
0.141665 -0.986704 0.079659
0.413900 -0.462902 -0.783842
0.043010 -0.452698 -0.890626
-0.436798 -0.569602 -0.696248
-0.714675 -0.698365 -0.039056
-0.252628 -0.919024 -0.302613
-0.526845 -0.803691 0.276613
-0.224316 -0.967776 0.114420
-0.025796 -0.900940 -0.433175
-0.386401 -0.899922 -0.202077
</DataArray>
         </PointData>
         <Points>
            <DataArray NumberOfComponents="3" format="ascii" type="Float32">	0.002134 0.018767 -0.012896
0.008823 0.011238 -0.016679
-0.002527 0.016016 -0.016990
0.008991 0.018724 -0.009841
0.001222 0.020757 -0.009133
0.012551 0.018072 -0.004925
-0.004486 0.009396 -0.021015
-0.000126 0.001642 -0.023689
0.008602 -0.002429 -0.021804
0.015806 0.003211 -0.017347
0.018059 0.007536 -0.011135
0.014966 0.015191 -0.008113
-0.003918 0.018525 -0.012988
-0.008320 0.012702 -0.017826
0.018758 0.012650 -0.003083
-0.001393 0.022105 -0.003501
0.007507 0.020790 -0.000845
0.014391 0.017205 0.001950
-0.008009 0.004593 -0.021900
-0.002050 -0.001954 -0.023357
0.008328 -0.005530 -0.021458
0.016232 -0.002705 -0.017396
0.020207 0.000444 -0.011873
0.021456 0.004952 -0.007410
-0.007361 0.020134 -0.007731
-0.011939 0.015204 -0.012591
-0.013258 0.007594 -0.017912
0.019666 0.010914 0.003634
-0.004282 0.022100 0.001604
0.000984 0.021869 0.004856
0.007088 0.019824 0.007368
0.014044 0.015087 0.009636
-0.009143 -0.001709 -0.021940
-0.001194 -0.007173 -0.022669
0.008931 -0.008606 -0.020275
0.016791 -0.006824 -0.015513
0.021776 -0.002850 -0.008208
0.023174 0.003255 0.000335
-0.010113 0.020165 -0.002538
-0.015256 0.015705 -0.007419
-0.017767 0.007462 -0.013432
-0.015075 -0.000586 -0.018266
0.023553 0.000957 0.003508
0.019085 0.009407 0.009386
-0.013681 0.018347 0.002717
-0.007888 0.020427 0.006069
-0.002407 0.020336 0.009833
0.003111 0.018429 0.013086
0.010720 0.012010 0.016345
-0.008255 -0.007596 -0.020873
0.000300 -0.011040 -0.020795
0.009529 -0.013042 -0.017504
0.018427 -0.009822 -0.010890
0.022525 -0.006336 -0.003967
-0.018353 0.013928 -0.002002
-0.020770 0.006352 -0.008456
-0.018562 -0.003095 -0.013994
-0.011383 -0.010011 -0.017970
0.021588 -0.004007 0.008603
0.016556 0.004702 0.015433
-0.016871 0.014737 0.005793
-0.021141 0.009757 -0.000868
-0.010786 0.017197 0.010665
-0.004116 0.016343 0.015478
0.002332 0.012429 0.019313
0.007525 0.007039 0.021008
-0.001838 -0.013328 -0.019252
0.008781 -0.015257 -0.016009
0.017670 -0.013300 -0.007818
0.022285 -0.008701 0.001012
-0.022301 0.000583 -0.006868
-0.018620 -0.007548 -0.012091
-0.009496 -0.012543 -0.018180
0.000598 -0.015273 -0.017826
0.016620 -0.006050 0.015506
0.012952 -0.000224 0.019736
-0.012484 0.013839 0.013844
-0.017961 0.012060 0.009008
-0.022125 0.006748 0.003047
-0.007876 0.012194 0.018500
-0.003666 0.010043 0.020991
0.000409 0.004804 0.022813
0.006450 -0.003446 0.022468
0.011165 -0.016701 -0.012406
0.016644 -0.016075 -0.001384
0.018839 -0.012328 0.007294
-0.023760 -0.000739 -0.002926
-0.020952 -0.007408 -0.008140
-0.012432 -0.013287 -0.012570
-0.002643 -0.015883 -0.013821
0.015254 -0.015980 0.009065
0.011237 -0.009493 0.018437
-0.019441 0.007613 0.010729
-0.013855 0.008633 0.016424
-0.021978 0.001494 0.004869
-0.022165 -0.005709 0.001085
-0.008953 0.006032 0.021021
-0.002944 0.001832 0.023127
0.000284 -0.005445 0.022996
0.005227 -0.012059 0.019274
0.005262 -0.017899 -0.010995
0.010212 -0.018859 -0.006950
0.014380 -0.018054 0.001366
-0.016456 -0.012819 -0.006264
-0.007915 -0.016163 -0.008324
-0.000427 -0.018344 -0.007014
0.008312 -0.017284 0.013201
-0.018028 -0.004449 0.009993
-0.012736 0.000433 0.014768
-0.019984 -0.011924 0.004331
-0.015332 -0.018041 -0.001443
-0.008402 -0.002267 0.019065
-0.003261 -0.006046 0.022961
0.001002 -0.012671 0.020595
0.005104 -0.018963 -0.002895
0.008800 -0.019098 0.004260
-0.008578 -0.021232 -0.002974
-0.000422 -0.022390 0.001364
0.003739 -0.017529 0.015435
-0.019848 -0.011900 0.017449
-0.021910 -0.018973 0.010763
-0.014148 -0.007994 0.022949
-0.018275 -0.023781 0.004534
-0.014584 -0.029106 0.001339
-0.008289 -0.011557 0.027231
-0.004701 -0.018952 0.026703
-0.003525 -0.025658 0.023150
0.004318 -0.020905 0.009087
-0.009031 -0.031525 0.001241
-0.003515 -0.032646 0.006454
-0.002278 -0.031393 0.016999
-0.018369 -0.009892 0.027960
-0.022072 -0.014267 0.021411
-0.023514 -0.021626 0.014540
-0.022323 -0.028797 0.009220
-0.013845 -0.012452 0.032781
-0.017589 -0.035534 0.002138
-0.014010 -0.037425 0.000244
-0.009249 -0.016845 0.034724
-0.006568 -0.022843 0.034623
-0.006102 -0.036892 0.023923
-0.007478 -0.028321 0.030350
-0.005952 -0.041201 0.006760
-0.002909 -0.041184 0.014845
-0.021595 -0.009783 0.033829
-0.017123 -0.011467 0.037718
-0.027233 -0.013799 0.027318
-0.028221 -0.021704 0.025110
-0.027343 -0.029159 0.018000
-0.024895 -0.036972 0.008281
-0.013583 -0.015316 0.040736
-0.020669 -0.042887 0.002767
-0.016721 -0.046301 -0.001649
-0.012446 -0.020441 0.041196
-0.011083 -0.034861 0.031372
-0.012776 -0.026827 0.037621
-0.003746 -0.048729 0.014257
-0.007303 -0.042591 0.023922
-0.009610 -0.048432 0.004732
-0.026662 -0.008811 0.037308
-0.022731 -0.009740 0.043374
-0.019228 -0.016106 0.045290
-0.033990 -0.008233 0.023039
-0.036056 -0.018046 0.024738
-0.035673 -0.027068 0.021608
-0.034279 -0.032989 0.014460
-0.030771 -0.039918 0.010362
-0.017836 -0.025342 0.043594
-0.025416 -0.046561 0.003918
-0.022067 -0.050017 -0.000599
-0.017793 -0.051703 -0.006090
-0.014983 -0.040512 0.034561
-0.017355 -0.034103 0.038885
-0.006703 -0.052586 0.023172
-0.010945 -0.046372 0.028659
-0.014941 -0.055665 0.000736
-0.006919 -0.057237 0.009861
-0.003449 -0.055109 0.016853
-0.028523 -0.008673 0.041617
-0.023039 -0.018490 0.046782
-0.020789 -0.028229 0.044575
-0.035154 -0.005461 0.025400
-0.039401 -0.008341 0.017529
-0.041213 -0.022924 0.017544
-0.039614 -0.033086 0.013333
-0.036594 -0.042916 0.010766
-0.030979 -0.049068 0.004058
-0.018866 -0.044691 0.037329
-0.020416 -0.037923 0.042872
-0.027170 -0.052296 -0.005840
-0.022525 -0.056386 -0.009599
-0.017954 -0.058823 -0.006442
-0.005681 -0.057830 0.022223
-0.010046 -0.055981 0.027560
-0.014970 -0.050607 0.033081
-0.003530 -0.060510 0.016278
-0.017239 -0.060228 0.000581
-0.012035 -0.061572 0.006806
-0.007156 -0.062252 0.010414
-0.032974 -0.011217 0.043278
-0.039902 -0.007003 0.030006
-0.029432 -0.020849 0.046831
-0.027490 -0.030159 0.047247
-0.044200 -0.007977 0.019957
-0.045228 -0.024225 0.017821
-0.045448 -0.033542 0.016201
-0.043429 -0.042783 0.015151
-0.034093 -0.052455 0.010545
-0.030237 -0.056471 -0.003639
-0.024276 -0.047047 0.040063
-0.025272 -0.040101 0.046106
-0.025431 -0.059722 -0.008433
-0.019984 -0.062587 -0.005664
-0.018273 -0.064425 0.003133
-0.005451 -0.063938 0.024093
-0.012318 -0.058537 0.031219
-0.019492 -0.056730 0.034812
-0.002715 -0.066671 0.018412
-0.012373 -0.067285 0.007710
-0.005499 -0.068124 0.011917
-0.036123 -0.016028 0.043163
-0.045974 -0.012743 0.032438
-0.047297 -0.015186 0.024289
-0.033369 -0.029019 0.048919
-0.048035 -0.023410 0.023894
-0.047545 -0.034435 0.024031
-0.044749 -0.042899 0.023303
-0.037413 -0.058369 0.017040
-0.030338 -0.061982 0.009001
-0.031636 -0.065246 0.016871
-0.030623 -0.063412 -0.001583
-0.029173 -0.048866 0.039642
-0.029983 -0.040077 0.048059
-0.025381 -0.065075 -0.005723
-0.020323 -0.069415 0.005379
-0.005671 -0.071254 0.027687
-0.002003 -0.073136 0.018291
-0.013311 -0.069522 0.033349
-0.025726 -0.056680 0.036864
-0.018824 -0.068349 0.036302
-0.006839 -0.074023 0.011241
-0.014542 -0.072284 0.007976
-0.038962 -0.029665 0.045298
-0.045785 -0.027467 0.038376
-0.047643 -0.028590 0.031747
-0.035833 -0.042733 0.043539
-0.046165 -0.038040 0.032010
-0.034301 -0.066594 0.024014
-0.037652 -0.058388 0.024840
-0.041472 -0.050329 0.027982
-0.026972 -0.069325 0.007993
-0.028071 -0.076772 0.020817
-0.034298 -0.052066 0.035312
-0.000001 -0.087412 0.026283
0.001373 -0.087335 0.018964
-0.003675 -0.088365 0.012818
-0.031002 -0.061631 0.032185
-0.025087 -0.069155 0.036058
-0.010068 -0.087304 0.034572
-0.012625 -0.088875 0.011950
-0.015467 -0.080029 0.010932
-0.041802 -0.041502 0.038690
-0.031480 -0.067967 0.030547
-0.020129 -0.092042 0.018474
-0.024077 -0.089969 0.032604
0.004624 -0.118527 0.031852
0.007650 -0.111177 0.020540
0.001839 -0.116785 0.010659
-0.018881 -0.089267 0.037754
-0.007909 -0.119235 0.037981
-0.011446 -0.118504 0.017468
-0.013604 -0.120707 0.034505
0.011064 -0.149037 0.033264
0.016468 -0.146630 0.022069
0.008443 -0.146777 0.009116
-0.002798 -0.149800 0.016054
0.001485 -0.151052 0.035956
-0.005213 -0.152252 0.030247
0.017524 -0.181217 0.032203
0.022025 -0.178381 0.021731
0.014156 -0.177963 0.008521
0.002380 -0.177967 0.014897
0.000950 -0.180342 0.026748
0.006973 -0.179757 0.034218
0.020827 -0.208799 0.030591
0.025054 -0.206855 0.016609
0.014494 -0.206971 0.007742
0.006060 -0.209166 0.013545
0.005102 -0.210457 0.025158
0.010981 -0.210366 0.032255
0.024792 -0.243682 0.027615
0.028183 -0.241878 0.014937
0.018724 -0.240848 0.005413
0.008932 -0.241268 0.010431
0.007743 -0.244310 0.022269
0.015016 -0.244500 0.029781
0.027536 -0.276113 0.023636
0.030417 -0.274483 0.012875
0.020860 -0.272275 0.002727
0.009869 -0.273908 0.008140
0.009291 -0.276502 0.021296
0.016967 -0.277864 0.026819
0.017613 -0.308120 0.024687
0.025240 -0.307828 0.023039
0.030306 -0.306179 0.008874
0.023755 -0.304766 -0.000297
0.014227 -0.304582 0.002105
0.008026 -0.305857 0.010608
0.009863 -0.307924 0.021290
0.016006 -0.340818 0.023302
0.026855 -0.341218 0.020931
0.030331 -0.341833 0.007164
0.022511 -0.339010 -0.004729
0.012902 -0.337580 -0.002270
0.007902 -0.338329 0.007634
0.007138 -0.339782 0.019096
0.013385 -0.367513 0.023657
0.027690 -0.370411 0.018213
0.027531 -0.368550 0.002426
0.023112 -0.365409 -0.007876
0.012364 -0.362562 -0.009795
0.005999 -0.367786 0.006158
0.004193 -0.367067 0.019893
0.000248 -0.379953 0.023606
0.013084 -0.381437 0.026328
0.027499 -0.386524 0.021629
0.027315 -0.384931 0.000392
0.019953 -0.378024 -0.013004
0.010093 -0.375358 -0.017522
0.006001 -0.377939 -0.008604
0.004376 -0.380700 0.003900
-0.005393 -0.386908 0.029111
0.009417 -0.394172 0.032120
-0.002827 -0.386950 0.015069
0.020402 -0.397334 0.029406
0.032814 -0.397236 0.022012
0.030595 -0.395803 0.009333
0.028861 -0.395923 -0.001007
0.024914 -0.391159 -0.012309
0.018710 -0.388099 -0.019920
0.004828 -0.387986 -0.032758
0.009144 -0.382211 -0.022783
0.002258 -0.386063 -0.012846
0.001332 -0.387863 0.000840
-0.011961 -0.391566 0.029637
-0.012186 -0.390087 0.014888
-0.000275 -0.398518 0.036690
0.007765 -0.402182 0.034805
-0.009088 -0.392127 0.009640
0.018920 -0.404484 0.030116
0.032902 -0.405952 0.022247
0.030232 -0.405345 0.009686
0.027703 -0.406431 0.000644
0.030531 -0.405352 -0.006931
0.023789 -0.399990 -0.017170
0.017083 -0.394771 -0.026754
0.015372 -0.402297 -0.029554
0.009740 -0.397918 -0.036172
0.000975 -0.394027 -0.036903
-0.002898 -0.391301 -0.025409
-0.003936 -0.392524 -0.015992
-0.004313 -0.394464 -0.001358
-0.019315 -0.397000 0.028132
-0.012413 -0.402755 0.035731
-0.020486 -0.395546 0.022485
-0.013450 -0.400649 0.006858
-0.019200 -0.397443 0.012507
-0.004824 -0.406224 0.037628
0.005202 -0.408443 0.034806
-0.004591 -0.400066 -0.000970
0.014830 -0.411899 0.030451
0.021947 -0.413354 0.028552
0.028592 -0.414204 0.023419
0.027258 -0.413645 0.011555
0.023060 -0.412977 0.000879
0.027359 -0.413810 -0.005224
0.031026 -0.414385 -0.009310
0.027550 -0.410568 -0.015435
0.022468 -0.407738 -0.020543
0.013031 -0.409421 -0.030167
0.004824 -0.402633 -0.037628
-0.009298 -0.397554 -0.035515
-0.017566 -0.394122 -0.027478
-0.005686 -0.393543 -0.027860
-0.012236 -0.392955 -0.018433
-0.010284 -0.398362 -0.012483
-0.024959 -0.404414 0.023714
-0.023783 -0.406220 0.030223
-0.015202 -0.410292 0.031108
-0.022988 -0.405472 0.014433
-0.005308 -0.408388 0.006823
-0.018816 -0.408765 0.009264
-0.009132 -0.413578 0.032898
0.000545 -0.416642 0.032570
-0.003337 -0.408863 -0.008795
0.001689 -0.410554 -0.001186
0.014097 -0.417720 0.029257
0.020491 -0.421304 0.026471
0.020311 -0.421241 0.015215
0.016796 -0.417887 0.005184
0.018396 -0.418868 -0.003280
0.026726 -0.421107 -0.010691
0.025205 -0.417231 -0.017918
0.019397 -0.413299 -0.022148
0.010578 -0.414317 -0.030513
0.000397 -0.411863 -0.035794
-0.009689 -0.409211 -0.036175
-0.022736 -0.408518 -0.033296
-0.019783 -0.395822 -0.020487
-0.019043 -0.403336 -0.012733
-0.024375 -0.410552 0.020086
-0.023886 -0.412954 0.028519
-0.018479 -0.417224 0.032330
-0.017494 -0.415397 0.012962
-0.007925 -0.416280 0.008166
-0.010256 -0.422335 0.032869
0.003120 -0.423059 0.030607
-0.020542 -0.409831 -0.013941
-0.015510 -0.415554 -0.013776
-0.006817 -0.422000 -0.013327
0.004846 -0.416357 -0.000432
0.004736 -0.417706 0.006339
0.011093 -0.423568 0.026485
0.011812 -0.424598 0.018470
0.010714 -0.418415 0.000539
0.009960 -0.421177 0.009923
0.011753 -0.421603 -0.004630
0.016987 -0.425625 -0.012163
0.019878 -0.425175 -0.021438
0.014965 -0.418886 -0.025153
0.007382 -0.420808 -0.029198
0.001106 -0.417849 -0.033892
-0.009720 -0.415455 -0.035528
-0.020209 -0.414476 -0.033413
-0.024482 -0.403513 -0.020683
-0.011968 -0.418955 0.013392
-0.016920 -0.419300 0.019088
-0.014226 -0.421751 0.025097
-0.001221 -0.420783 0.011535
-0.003397 -0.424534 0.023943
-0.023190 -0.415806 -0.022676
-0.016699 -0.420793 -0.017889
-0.006066 -0.426428 -0.015533
0.003960 -0.421652 -0.006913
0.003665 -0.424559 0.017867
0.002181 -0.429172 -0.015118
0.006767 -0.430363 -0.020581
0.009659 -0.428067 -0.027432
-0.006606 -0.425121 -0.033696
-0.015949 -0.422695 -0.031049
-0.018080 -0.422181 -0.023897
-0.007064 -0.422840 0.017636
-0.011267 -0.426908 -0.020629
-0.003944 -0.429494 -0.020289
-0.000910 -0.428210 -0.031016
-0.010415 -0.427177 -0.026879
</DataArray>
         </Points>
         <Polys>
            <DataArray Name="connectivity" format="ascii" type="Int32">