<?xml version="1.0" encoding="utf-8"?>
<VTKFile byte_order="LittleEndian" compressor="vtkZLibDataCompressor" type="PolyData"
         version="0.1">
   <PolyData>
      <Piece NumberOfLines="0" NumberOfPoints="456" NumberOfPolys="908" NumberOfStrips="0"
             NumberOfVerts="0">
         <PointData Normals="Normals">
            <DataArray Name="Normals" NumberOfComponents="3" format="ascii" type="Float32">
-0.261491 0.594688 0.760242
0.080536 0.341305 0.936496
0.001802 0.770265 0.637722
-0.021499 0.850627 0.525330
-0.363485 0.290920 0.885011
-0.345770 0.791739 0.503580
-0.589916 0.520509 0.617308
0.294673 0.734484 0.611311
-0.281156 0.020009 0.959454
-0.049834 -0.126800 0.990676
0.294208 0.012871 0.955655
0.503436 0.221009 0.835288
0.485169 0.482857 0.729013
0.345921 0.819241 0.457365
-0.060030 0.949096 0.309212
0.286543 0.909996 0.299666
-0.626172 0.086950 0.774822
-0.390880 0.848657 0.356363
-0.641616 0.662844 0.385962
-0.807183 0.285337 0.516758
0.661767 0.557970 0.500733
-0.393325 -0.236702 0.888407
-0.019136 -0.320673 0.946997
0.384727 -0.209864 0.898856
0.600386 -0.073036 0.796368
0.740571 0.202020 0.640892
0.603183 0.752306 0.264964
-0.178313 0.981457 0.070327
0.129993 0.990705 0.040078
0.407588 0.913118 0.009411
-0.692318 -0.167745 0.701824
-0.480568 0.867476 0.128603
-0.752529 0.622662 0.214456
-0.917293 0.266887 0.295541
-0.877500 -0.126968 0.462464
0.843082 0.448514 0.296730
-0.374273 -0.430478 0.821345
0.018275 -0.517214 0.855661
0.451235 -0.446506 0.772670
0.741746 -0.213542 0.635777
0.881678 0.085763 0.463992
0.686181 0.726973 -0.025805
-0.194235 0.959109 -0.205868
-0.493977 0.854538 -0.160471
0.093216 0.965056 -0.244904
0.401454 0.864656 -0.302002
-0.634975 -0.473762 0.610210
-0.782310 0.619270 -0.067043
-0.969261 0.243692 0.033870
-0.961837 -0.196754 0.190150
-0.724241 -0.498459 0.476459
0.983050 0.084345 0.162783
0.897923 0.438573 -0.037247
-0.275622 -0.644378 0.713308
0.179437 -0.686019 0.705110
0.587405 -0.562527 0.581824
0.862532 -0.269802 0.428071
0.700688 0.623031 -0.347662
-0.497417 0.792744 -0.352326
-0.187639 0.881658 -0.432979
-0.804969 0.552242 -0.216918
0.124675 0.847234 -0.516382
0.422327 0.684092 -0.594692
-0.341981 -0.745995 0.571437
-0.976730 0.213611 -0.019218
-0.968529 -0.219517 0.117318
-0.739264 -0.618277 0.266876
-0.327919 -0.831465 0.448482
0.992782 -0.104265 -0.059262
0.921349 0.265987 -0.283490
0.156828 -0.773496 0.614092
0.566156 -0.711792 0.415715
0.864394 -0.466003 0.188852
0.658318 0.411783 -0.630121
-0.327510 0.722976 -0.608312
-0.648468 0.568321 -0.506460
-0.064896 0.716154 -0.694919
-0.857704 0.289576 -0.424841
0.224291 0.584408 -0.779847
0.429830 0.345194 -0.834318
0.101313 -0.868247 0.485678
-0.982313 0.013515 -0.186759
-0.858319 -0.502964 -0.101563
-0.529784 -0.848132 -0.000860
-0.287800 -0.952777 0.096886
0.911563 -0.270542 -0.309613
0.855486 0.077182 -0.512041
0.621683 -0.703553 0.344272
0.823470 -0.566855 0.023919
0.597854 0.009791 -0.801545
-0.330886 0.300884 -0.894418
-0.574177 0.356622 -0.736981
-0.756459 0.131916 -0.640599
-0.179531 0.242025 -0.953516
-0.880762 -0.226682 -0.415780
0.145543 0.213665 -0.966004
0.434603 -0.012704 -0.900533
-0.147174 -0.982971 0.110037
0.135287 -0.989377 0.053198
-0.723015 -0.690752 -0.010505
-0.374884 -0.911240 0.170597
-0.192345 -0.976353 0.098681
0.706708 -0.609876 -0.358630
0.725456 -0.309117 -0.614947
0.461124 -0.885561 -0.056096
0.578957 -0.346069 -0.738272
-0.663087 0.202080 -0.720749
-0.421341 0.361998 -0.831522
-0.947664 -0.069673 -0.311575
-0.091893 0.464532 -0.880776
-0.896955 -0.401038 0.186122
0.490090 0.209878 -0.846028
0.057652 -0.997899 0.029576
0.277703 -0.944416 -0.175954
-0.430022 -0.655687 0.620609
0.149734 -0.840468 0.520761
0.487159 -0.738418 -0.466278
0.817550 -0.189365 -0.543831
-0.720678 0.643725 -0.257376
-0.969378 0.234888 -0.071655
-0.043201 0.926581 -0.373606
-0.961265 -0.056251 0.269825
0.572210 0.719875 -0.392881
-0.700259 -0.195003 0.686739
0.961667 0.193115 -0.194685
0.654379 -0.743833 0.136018
0.805859 -0.513081 -0.295533
0.000231 -0.451309 0.892368
0.628216 -0.481259 0.611338
0.974209 -0.193007 -0.116898
-0.145851 0.987155 0.065211
-0.728869 0.673207 0.124668
-0.951319 0.295108 0.088898
-0.961381 0.179371 0.208742
0.519013 0.854664 -0.013260
-0.835227 0.069999 0.545432
0.870007 0.487822 -0.071541
-0.404560 -0.090469 0.910025
0.975375 -0.121857 -0.183832
0.949493 -0.305467 0.071780
0.439865 -0.374278 0.816354
0.874965 -0.264979 0.405243
0.982112 -0.169571 -0.081867
0.945732 -0.284516 -0.156977
-0.060893 0.949572 0.307580
0.537617 0.841090 0.059459
-0.380183 0.515798 0.767732
-0.730638 0.302884 0.611906
-0.632632 0.548764 0.546475
-0.776521 0.314961 0.545724
0.806706 0.528515 -0.264381
-0.763865 0.243333 0.597746
0.912706 -0.033668 -0.407228
-0.255549 0.193753 0.947182
0.946079 -0.197739 -0.256581
0.921488 -0.250648 -0.296708
0.547978 -0.281675 0.787641
0.860115 -0.175777 0.478858
0.990518 -0.073659 -0.115971
0.164688 0.905633 0.390778
0.432818 0.876742 -0.209741
0.756380 0.345204 -0.555629
0.428279 0.337594 0.838217
0.196508 -0.127384 0.972193
0.142483 0.327131 0.934175
-0.264765 0.414281 0.870787
-0.647359 0.318294 0.692542
0.855553 -0.054539 -0.514835
-0.539535 0.551969 0.635792
-0.467636 0.645749 0.603593
0.946419 -0.090577 -0.309978
0.894906 -0.176264 -0.409970
0.196620 0.296361 0.934618
0.913786 -0.171753 -0.368098
0.933599 -0.126200 -0.335361
0.613672 -0.244079 0.750888
0.521684 -0.163010 0.837421
0.926475 -0.009818 0.376229
0.237521 0.955442 -0.175256
0.418938 0.358342 -0.834315
0.664550 0.023498 -0.746874
0.137739 0.899362 0.414942
0.072919 0.129094 0.988948
-0.194807 0.103127 0.975405
-0.550872 0.087722 0.829967
-0.719332 0.067204 0.691408
-0.836378 0.378026 0.396949
0.875704 -0.240341 -0.418783
0.835206 -0.096955 -0.541323
-0.621842 0.558521 0.548969
-0.222881 0.249142 0.942471
0.982376 0.135850 -0.128386
0.911286 0.040918 -0.409737
0.860480 -0.099890 -0.499596
0.627229 -0.204259 0.751573
0.985605 -0.003056 0.169039
0.543883 -0.314258 0.778096
0.345102 -0.140170 0.928039
0.557485 -0.000953 0.830186
-0.016684 0.672416 -0.739985
-0.346658 0.904563 -0.248179
0.250623 0.241522 -0.937473
0.582226 0.190640 -0.790361
-0.794510 0.576462 0.190905
-0.878558 0.016084 0.477366
-0.938318 -0.037333 0.343752
-0.929345 -0.219192 0.297106
-0.961480 -0.230717 0.149418
-0.997214 0.021301 0.071484
0.640973 -0.349335 -0.683461
0.741145 -0.158922 -0.652264
-0.689605 -0.208449 0.693537
0.296046 -0.488756 0.820655
0.980419 0.168221 -0.102373
0.894099 0.157254 -0.419354
0.728210 -0.018430 -0.685106
0.552984 -0.436744 0.709551
0.862087 0.069851 0.501923
0.202459 -0.264249 0.942965
0.412245 -0.058501 0.909193
-0.082868 0.428138 -0.899906
-0.522019 0.567756 -0.636514
-0.871786 0.364987 -0.326761
0.251348 0.206846 -0.945536
-0.990566 0.077776 -0.112823
-0.966066 -0.076525 -0.246699
-0.913221 -0.267192 -0.307630
-0.927941 -0.355117 -0.113215
-0.932024 -0.354171 0.076771
-0.933521 -0.313732 -0.173524
-0.900257 -0.433552 0.039627
0.259064 -0.403444 -0.877564
0.337104 -0.336443 -0.879299
-0.330357 -0.773500 0.540890
0.121825 -0.699179 0.704490
0.951214 0.176415 -0.253119
0.904180 0.142975 0.402512
0.780418 0.071036 -0.621210
0.596928 0.005425 -0.802276
0.223175 -0.129637 -0.966120
0.387810 -0.031418 0.921204
-0.144283 -0.309167 0.939999
-0.322818 0.186343 -0.927936
-0.677547 0.146675 -0.720706
-0.829877 0.053923 -0.555335
-0.164727 -0.298401 -0.940118
-0.817085 -0.207138 -0.538020
-0.869764 -0.437579 -0.228113
-0.749019 -0.307494 -0.586871
-0.679926 -0.330564 -0.654544
-0.907803 -0.417885 0.035583
-0.618373 -0.740612 0.262885
-0.216310 -0.386230 -0.896681
0.893157 0.168960 -0.416801
0.896556 0.210096 0.389932
0.361847 0.081016 0.928710
0.020722 -0.098689 -0.994903
0.561636 0.058371 -0.825322
-0.340820 -0.213472 -0.915572
-0.408990 -0.147235 0.900583
-0.672134 -0.354247 0.650189
-0.531189 -0.213584 -0.819890
-0.631357 -0.285644 -0.720969
-0.896757 -0.245071 0.368466
-0.822669 -0.253891 -0.508680
0.766772 0.149214 -0.624336
0.958777 0.206553 0.195145
0.107671 0.067321 0.991905
-0.102720 -0.084595 -0.991107
0.037034 -0.060121 -0.997504
-0.827573 -0.182006 0.531033
-0.866966 -0.260179 -0.425061
0.663038 0.081306 -0.744157
0.980104 0.190551 0.055562
0.200263 0.114725 0.973002
-0.813169 -0.112362 0.571079
-0.165647 -0.149629 -0.974768
-0.917077 -0.251846 -0.309100
0.651453 0.008028 -0.758647
0.985762 0.132194 0.103915
0.230590 0.099625 0.967938
-0.831552 -0.070904 0.550902
-0.947629 -0.181463 -0.262811
-0.293201 -0.156677 -0.943125
0.674489 -0.015846 -0.738115
0.960117 0.122492 0.251338
0.103919 0.126513 0.986507
-0.858622 -0.011463 0.512481
-0.943966 -0.126919 -0.304663
-0.323975 -0.142214 -0.935316
0.694622 -0.041640 -0.718168
0.964716 0.094431 0.245777
0.133284 0.126939 0.982915
-0.847722 0.019813 0.530071
-0.930009 -0.088763 -0.356659
-0.273328 -0.143887 -0.951098
0.568713 -0.092715 -0.817294
0.989318 0.037496 0.140871
0.203006 0.148306 0.967881
-0.786299 0.078151 0.612884
-0.952218 -0.018988 -0.304829
-0.307225 -0.101487 -0.946210
0.029685 -0.087777 -0.995698
0.813884 -0.065576 -0.577315
0.970754 0.016702 0.239496
0.323498 0.148454 0.934511
-0.620309 0.120937 0.774978
-0.987900 0.047387 0.147672
-0.693128 -0.033588 -0.720032
-0.079809 -0.053645 -0.995366
0.730497 -0.080354 -0.678172
0.991238 -0.011776 0.131564
0.440450 0.163378 0.882786
-0.638088 0.191800 0.745692
-0.957516 0.088180 0.274568
-0.826526 0.046376 -0.560984
-0.105123 0.088624 -0.990502
0.668166 0.003549 -0.744004
0.984896 -0.031217 0.170307
0.655447 0.165326 0.736924
-0.526182 0.384298 0.758583
-0.962664 0.168434 0.211916
-0.940786 0.193792 -0.278150
-0.603696 0.536008 -0.590124
0.197926 0.241797 -0.949926
0.874792 0.244276 -0.418412
0.965569 0.140500 0.218945
0.800542 0.161667 0.577059
-0.029579 0.540891 0.840572
-0.906211 0.367711 0.208734
-0.926382 0.355536 0.124140
0.128323 0.407512 -0.904139
-0.432913 0.790988 -0.432347
-0.632234 0.738795 0.233372
0.412952 0.199877 -0.888549
0.819577 0.179284 -0.544197
0.980842 0.104924 0.164133
0.979576 0.142384 0.141977
0.822034 0.302923 0.482180
0.142688 0.695410 0.704305
0.720475 0.424904 0.548063
-0.852438 0.514110 0.095083
-0.798028 0.599380 0.062415
-0.763295 0.632872 0.129823
-0.393313 0.684931 -0.613331
0.042985 0.344261 -0.937890
0.319129 0.040561 -0.946843
-0.517511 0.807998 0.281642
-0.641808 0.600348 0.477143
0.417315 -0.050677 -0.907348
0.909884 -0.132893 -0.393002
0.919299 -0.317031 0.233198
0.955967 -0.275303 -0.101667
0.996729 0.066583 0.045813
0.824255 0.191117 0.532990
0.734795 0.230154 0.638048
0.704022 0.016597 0.709985
0.363191 0.150699 0.919447
-0.255564 0.696544 0.670458
-0.608865 0.776567 0.161949
-0.586503 0.798479 -0.135814
-0.874673 0.483055 0.040062
-0.361709 0.129398 -0.923267
-0.680934 0.522324 -0.513329
-0.779029 0.626735 -0.017786
-0.058361 -0.212455 -0.975427
0.229220 -0.276080 -0.933402
-0.561192 0.200691 0.802986
-0.715720 0.437285 0.544543
-0.955854 -0.238729 0.171322
0.267904 -0.217028 -0.938683
0.405175 -0.183231 -0.895689
0.824168 -0.528380 -0.203867
0.736000 -0.619969 0.271924
0.732861 -0.656691 -0.177967
0.748786 -0.379931 -0.543113
0.963385 -0.202814 0.175372
0.784645 -0.022985 0.619519
0.763106 0.031070 0.645527
0.610860 -0.202051 0.765523
0.256043 -0.121217 0.959035
-0.274930 0.194311 0.941624
-0.464580 0.744362 0.479677
-0.257614 0.962470 0.085358
-0.304962 0.869490 -0.388569
-0.637838 0.389982 -0.664137
-0.674651 0.042659 -0.736903
-0.309275 -0.139096 -0.940745
-0.974788 0.213043 -0.066334
-0.917624 0.039633 0.395469
-0.086289 -0.157910 -0.983676
0.149837 -0.219660 -0.964001
-0.514602 -0.249746 0.820251
-0.541898 -0.151019 0.826764
-0.911206 -0.401939 -0.090271
-0.563968 -0.074166 -0.822459
0.236271 -0.242893 -0.940840
0.429267 -0.672291 -0.603120
0.488615 -0.860537 0.143988
0.364479 -0.906345 0.213761
0.315225 -0.835102 -0.450819
0.667571 -0.696629 -0.262787
0.748279 -0.099234 0.655921
0.682002 -0.136847 0.718433
0.525115 -0.270636 0.806852
0.242453 -0.255318 0.935964
-0.180093 -0.022591 0.983390
-0.695472 0.160330 0.700437
-0.634308 0.762058 -0.130080
-0.505313 0.342637 -0.791997
-0.847730 -0.319270 -0.423580
-0.557615 -0.405069 -0.724558
-0.862147 -0.442858 0.246129
-0.637459 -0.598751 0.484916
-0.133630 -0.652197 -0.746178
0.171069 -0.674443 -0.718235
-0.361615 -0.535886 0.762929
-0.486903 -0.234281 -0.841450
-0.445025 -0.492660 -0.747822
-0.569909 -0.775635 -0.271282
-0.388133 -0.792595 0.470262
-0.629390 -0.236008 -0.740384
0.165249 -0.971204 -0.171626
0.170678 -0.967746 0.185303
-0.042601 -0.972351 -0.229604
-0.069554 -0.922806 0.378933
0.275390 -0.890944 -0.361080
0.071385 -0.838464 -0.540262
0.623353 -0.657996 0.422459
0.560971 -0.126073 0.818179
0.432441 -0.282113 0.856392
0.238002 -0.273281 0.932026
-0.131094 -0.181175 0.974674
-0.769722 -0.385874 0.508556
-0.981272 0.074660 -0.177568
-0.605701 -0.767033 0.211628
-0.426410 -0.904520 0.004301
-0.418906 -0.783823 0.458409
-0.092421 -0.994825 -0.042214
-0.164714 -0.827014 0.537510
-0.553066 -0.561434 -0.615556
-0.373460 -0.687907 -0.622344
-0.284494 -0.697075 -0.658141
-0.860731 -0.470662 -0.193955
-0.051092 -0.975455 0.214192
0.148059 -0.985985 -0.076890
-0.114000 -0.863752 -0.490853
0.409762 -0.459286 0.788132
0.031087 -0.471463 0.881338
-0.519429 -0.630680 0.576572
-0.710903 -0.702470 0.033951
-0.249898 -0.920025 0.301837
-0.519729 -0.807177 -0.279903
-0.217718 -0.969229 -0.114864
-0.024340 -0.900412 0.434357
-0.382915 -0.901852 0.200099
</DataArray>
         </PointData>
         <Points>
            <DataArray NumberOfComponents="3" format="ascii" type="Float32">	-0.008741 0.013251 0.017218
0.001825 0.007749 0.020356
-0.002845 0.016261 0.015723
-0.002231 0.018887 0.012306
-0.012147 0.006242 0.018986
-0.008473 0.016461 0.013494
-0.014439 0.010289 0.015225
0.004659 0.016194 0.015509
-0.009205 -0.002143 0.021697
-0.000455 -0.006503 0.022542
0.007953 -0.000781 0.022178
0.012448 0.004296 0.018128
0.010811 0.012543 0.015559
0.009823 0.016066 0.012256
-0.002482 0.021304 0.006434
0.006746 0.019767 0.007126
-0.015779 0.001636 0.017628
-0.009629 0.019137 0.007699
-0.015760 0.013854 0.009540
-0.019078 0.005615 0.012554
0.016216 0.010557 0.011959
-0.010886 -0.005486 0.020042
-0.000601 -0.009481 0.021581
0.008280 -0.006645 0.021346
0.014090 -0.002964 0.018363
0.016989 0.002090 0.015559
0.014146 0.016167 0.006538
-0.003198 0.022326 0.000703
0.002909 0.022221 -0.000322
0.009494 0.020151 -0.000676
-0.016895 -0.004490 0.016133
-0.010186 0.020199 0.001945
-0.016842 0.015417 0.003676
-0.021531 0.006534 0.006761
-0.020961 -0.002358 0.010759
0.019612 0.009847 0.005881
-0.009877 -0.010580 0.018822
0.000382 -0.012365 0.020191
0.009481 -0.010442 0.019120
0.016914 -0.005741 0.015038
0.021526 0.001520 0.008857
0.016747 0.015329 -0.000960
-0.004834 0.021657 -0.005008
-0.011488 0.019511 -0.004496
0.001668 0.021756 -0.006393
0.007995 0.019982 -0.007617
-0.015716 -0.010182 0.014463
-0.017646 0.014759 -0.002729
-0.022411 0.006457 0.000910
-0.022569 -0.003889 0.005123
-0.017516 -0.011865 0.010223
0.023069 -0.000267 0.005709
0.021262 0.009320 0.000163
-0.007811 -0.014200 0.016998
0.001957 -0.016337 0.017116
0.012736 -0.012782 0.015000
0.019200 -0.008556 0.010847
0.016217 0.013613 -0.008853
-0.013288 0.016683 -0.009126
-0.005782 0.019423 -0.010845
-0.019823 0.011040 -0.005538
0.002216 0.018849 -0.012873
0.009607 0.015123 -0.014629
-0.009216 -0.016047 0.014391
-0.023267 0.001143 -0.002121
-0.021931 -0.007965 0.002589
-0.015874 -0.014531 0.010679
-0.006435 -0.017918 0.013666
0.023161 -0.004198 -0.000536
0.021199 0.005838 -0.007114
0.001819 -0.018224 0.015087
0.013182 -0.015660 0.011310
0.020862 -0.010075 0.005812
0.015008 0.009698 -0.015168
-0.006162 0.016750 -0.014965
-0.013088 0.014640 -0.012930
-0.000138 0.015525 -0.017761
-0.019260 0.008774 -0.009998
0.004687 0.013488 -0.018826
0.009104 0.008316 -0.019873
0.005388 -0.019252 0.012449
-0.023118 0.000577 -0.006488
-0.022574 -0.007026 -0.001858
-0.016446 -0.014154 0.004341
-0.007903 -0.017639 0.008698
0.021196 -0.004741 -0.009043
0.019473 0.001940 -0.013247
0.014672 -0.017294 0.004583
0.020051 -0.012390 -0.001835
0.014485 -0.000311 -0.018739
-0.006485 0.012137 -0.018740
-0.013834 0.010645 -0.015832
-0.018470 0.003881 -0.012522
-0.000220 0.009941 -0.021540
-0.020151 -0.003798 -0.010412
0.006102 0.005691 -0.021939
0.008974 -0.001735 -0.021883
0.000465 -0.019767 0.008738
0.006577 -0.020438 0.006746
-0.017748 -0.012391 -0.002828
-0.010674 -0.016648 0.001666
-0.003273 -0.019147 0.002902
0.017386 -0.015437 -0.005433
0.017315 -0.007263 -0.014333
0.013616 -0.018638 0.000883
0.012061 -0.009207 -0.017800
-0.012911 -0.001451 -0.016746
-0.006154 0.003718 -0.018250
-0.016946 -0.009564 -0.013638
-0.000529 0.001419 -0.021008
-0.014908 -0.016851 -0.007708
0.005680 -0.002067 -0.023287
0.003407 -0.019515 0.001121
0.009559 -0.018788 -0.004029
-0.009282 -0.020740 -0.004340
-0.000096 -0.021800 -0.005431
0.012544 -0.015545 -0.012031
0.008658 -0.009284 -0.020695
-0.011803 -0.007466 -0.025521
-0.016324 -0.015338 -0.021451
-0.004401 -0.003174 -0.027705
-0.015391 -0.021332 -0.015260
0.002621 -0.006439 -0.030028
-0.013247 -0.027358 -0.011900
0.005672 -0.014072 -0.029496
0.007249 -0.019466 -0.010421
0.009172 -0.015090 -0.015824
-0.008173 -0.030170 -0.010151
-0.001094 -0.030857 -0.013022
0.005344 -0.021324 -0.026997
-0.006398 -0.003930 -0.034181
-0.012362 -0.009001 -0.030378
-0.016385 -0.017231 -0.025955
-0.017380 -0.025223 -0.021923
-0.000396 -0.006023 -0.037320
-0.015772 -0.033334 -0.014882
0.004557 -0.010383 -0.038134
-0.013206 -0.035764 -0.012145
0.006945 -0.016504 -0.038088
0.004094 -0.028041 -0.021936
-0.003300 -0.039049 -0.015715
0.002605 -0.037976 -0.021928
0.003163 -0.032069 -0.030638
0.004423 -0.022508 -0.035501
-0.007133 -0.002649 -0.040715
-0.001528 -0.004024 -0.042872
-0.014866 -0.007217 -0.037607
-0.016690 -0.015276 -0.037355
-0.018662 -0.023810 -0.031861
-0.020183 -0.033229 -0.023467
0.002865 -0.007598 -0.044965
-0.018438 -0.040243 -0.017899
0.004049 -0.012656 -0.045856
-0.016509 -0.044600 -0.012997
0.001429 -0.028516 -0.038931
0.002322 -0.019486 -0.043845
-0.007516 -0.046216 -0.016510
0.001544 -0.045434 -0.023031
0.002006 -0.037590 -0.032086
-0.010475 -0.000762 -0.045613
-0.004531 -0.001007 -0.049821
-0.000616 -0.007232 -0.051367
-0.022699 -0.001913 -0.035274
-0.024041 -0.011149 -0.039316
-0.024960 -0.020556 -0.037905
-0.026456 -0.027625 -0.031914
-0.024841 -0.035359 -0.028083
-0.000055 -0.016697 -0.050920
-0.022415 -0.043323 -0.021373
-0.021078 -0.047693 -0.016611
-0.001002 -0.033280 -0.044288
-0.001486 -0.026107 -0.047990
-0.019244 -0.050544 -0.010304
0.002190 -0.047594 -0.032931
0.000421 -0.040289 -0.038428
-0.013918 -0.052555 -0.015569
-0.002916 -0.053657 -0.020908
0.002757 -0.051324 -0.026400
-0.010545 0.000197 -0.050209
-0.003585 -0.009057 -0.054573
-0.002433 -0.019164 -0.053427
-0.022848 0.001278 -0.037374
-0.029808 -0.002490 -0.032308
-0.031598 -0.016707 -0.035559
-0.031816 -0.027500 -0.032907
-0.030092 -0.037812 -0.031161
-0.027521 -0.045352 -0.024027
-0.003565 -0.036665 -0.048997
-0.002821 -0.029004 -0.053437
-0.027816 -0.050387 -0.014155
-0.024771 -0.053747 -0.008831
0.002906 -0.053879 -0.031897
0.000752 -0.049990 -0.038775
-0.001641 -0.043454 -0.044706
-0.019028 -0.055944 -0.009773
0.002735 -0.056671 -0.025696
-0.015699 -0.057135 -0.015980
-0.008527 -0.058182 -0.019875
-0.002656 -0.058648 -0.021532
-0.014043 -0.001711 -0.053837
-0.025486 0.000847 -0.043619
-0.009492 -0.010894 -0.057431
-0.007617 -0.020138 -0.058712
-0.033310 -0.001385 -0.036256
-0.035213 -0.017645 -0.037547
-0.036114 -0.027058 -0.037788
-0.034728 -0.036473 -0.037695
-0.027945 -0.047425 -0.031694
-0.029675 -0.053876 -0.017407
-0.007538 -0.038147 -0.053929
-0.006087 -0.030273 -0.058585
-0.026632 -0.057073 -0.010576
-0.020206 -0.059687 -0.010865
0.003703 -0.059957 -0.033808
0.000206 -0.054505 -0.042742
-0.005209 -0.048869 -0.049051
-0.015462 -0.061256 -0.018434
0.004351 -0.062772 -0.027673
-0.008212 -0.063850 -0.020656
-0.000321 -0.064435 -0.022454
-0.017037 -0.006230 -0.055757
-0.030214 -0.003963 -0.049117
-0.034575 -0.007565 -0.042624
-0.012399 -0.018310 -0.062240
-0.035476 -0.015669 -0.043984
-0.035064 -0.026537 -0.045858
-0.032830 -0.035194 -0.045630
-0.028578 -0.051966 -0.039888
-0.023332 -0.062071 -0.036003
-0.024845 -0.058991 -0.028513
-0.028762 -0.060669 -0.018390
-0.012240 -0.039636 -0.055702
-0.009693 -0.029588 -0.062127
-0.025053 -0.062274 -0.012382
-0.016386 -0.066201 -0.020843
0.004384 -0.067238 -0.037580
0.005041 -0.069242 -0.027628
-0.000910 -0.065539 -0.045274
-0.004973 -0.064415 -0.049854
-0.010183 -0.048029 -0.053250
-0.001569 -0.070368 -0.022258
-0.009956 -0.068866 -0.021378
-0.018957 -0.019104 -0.061156
-0.027891 -0.017530 -0.057032
-0.032153 -0.019550 -0.051893
-0.016849 -0.032482 -0.060674
-0.030767 -0.028922 -0.053234
-0.023440 -0.063308 -0.043544
-0.025482 -0.055183 -0.046631
-0.028074 -0.042010 -0.049961
-0.019271 -0.073385 -0.037325
-0.021898 -0.066211 -0.025473
-0.018657 -0.043092 -0.054246
0.008596 -0.083427 -0.035599
0.008439 -0.083422 -0.028174
0.002283 -0.084616 -0.023185
-0.011020 -0.065375 -0.051653
0.000596 -0.083381 -0.045763
-0.016889 -0.053252 -0.051840
-0.006655 -0.085287 -0.024071
-0.009801 -0.076540 -0.024106
-0.024208 -0.031595 -0.058284
-0.018706 -0.064459 -0.048634
-0.012820 -0.088499 -0.031756
-0.013737 -0.086327 -0.046645
0.011016 -0.114766 -0.042314
0.014193 -0.107331 -0.030509
0.007918 -0.113016 -0.021147
-0.007513 -0.085468 -0.050687
-0.001348 -0.115554 -0.048632
-0.005254 -0.114826 -0.028164
-0.007294 -0.117067 -0.045167
0.016835 -0.145752 -0.042240
0.022132 -0.143293 -0.031016
0.013954 -0.143495 -0.018051
0.002758 -0.146619 -0.025011
0.007267 -0.147844 -0.044964
0.000485 -0.149104 -0.039229
0.022831 -0.178349 -0.039775
0.027239 -0.175460 -0.029301
0.019213 -0.175094 -0.016084
0.007515 -0.175161 -0.022605
0.006200 -0.177564 -0.034457
0.012327 -0.176926 -0.041961
0.025730 -0.206300 -0.036979
0.029805 -0.204322 -0.022927
0.019127 -0.204514 -0.014072
0.010731 -0.206785 -0.019893
0.009904 -0.208084 -0.031554
0.015880 -0.207946 -0.038672
0.029177 -0.241647 -0.032509
0.032425 -0.239819 -0.019762
0.022848 -0.238850 -0.010267
0.013107 -0.239330 -0.015378
0.012032 -0.242403 -0.027204
0.019411 -0.242536 -0.034731
0.031431 -0.274514 -0.027152
0.034185 -0.272867 -0.016324
0.024506 -0.270711 -0.006225
0.013551 -0.272432 -0.011690
0.013122 -0.275036 -0.024882
0.020869 -0.276352 -0.030362
0.021092 -0.307015 -0.027000
0.028710 -0.306671 -0.025300
0.033588 -0.305008 -0.010989
0.026911 -0.303644 -0.001807
0.017399 -0.303521 -0.004282
0.011299 -0.304833 -0.012876
0.013282 -0.306879 -0.023613
0.019101 -0.340122 -0.024433
0.029931 -0.340456 -0.021964
0.033147 -0.341129 -0.007884
0.025133 -0.338382 0.004073
0.015552 -0.337000 0.001498
0.010702 -0.337754 -0.008561
0.010154 -0.339154 -0.020239
0.016384 -0.367012 -0.024257
0.030609 -0.369854 -0.018581
0.030046 -0.368152 -0.002285
0.025394 -0.365106 0.008217
0.014587 -0.362331 0.010074
0.008532 -0.367521 -0.006196
0.007114 -0.366642 -0.020493
0.002655 -0.379981 -0.023009
0.015523 -0.381394 -0.025617
0.029925 -0.386391 -0.020785
0.029547 -0.384766 0.000447
0.022030 -0.377881 0.013768
0.012115 -0.375266 0.018196
0.008116 -0.377884 0.009247
0.006616 -0.380674 -0.003266
0.011980 -0.394159 -0.031420
-0.002897 -0.386977 -0.028552
-0.000454 -0.386982 -0.014488
0.022959 -0.397253 -0.028606
0.035306 -0.397072 -0.021105
0.032968 -0.395633 -0.008448
0.031145 -0.395746 0.001877
0.027072 -0.390989 0.013137
0.006791 -0.387902 0.033406
0.020784 -0.387953 0.020689
0.011160 -0.382117 0.023459
0.004383 -0.386023 0.013469
0.003587 -0.387849 -0.000222
-0.009434 -0.391673 -0.029127
0.002353 -0.398568 -0.036067
0.010398 -0.402182 -0.034107
-0.009795 -0.390173 -0.014384
-0.006731 -0.392187 -0.009106
0.021525 -0.404413 -0.029318
0.035446 -0.405787 -0.021325
0.032663 -0.405177 -0.008789
0.030062 -0.406264 0.000232
0.032818 -0.405157 0.007829
0.025956 -0.399818 0.018001
0.019136 -0.394624 0.027519
0.017446 -0.402156 0.030315
0.011730 -0.397800 0.036877
0.002937 -0.393959 0.037526
-0.000852 -0.391272 0.025995
-0.001801 -0.392515 0.016571
-0.002039 -0.394480 0.001938
-0.009767 -0.402873 -0.035207
-0.016769 -0.397147 -0.027677
-0.017997 -0.395692 -0.022044
-0.002143 -0.406302 -0.037033
0.007871 -0.408459 -0.034121
-0.011068 -0.400730 -0.006348
-0.016787 -0.397566 -0.012051
-0.002281 -0.400084 0.001555
0.017481 -0.411851 -0.029677
0.024589 -0.413262 -0.027714
0.031195 -0.414066 -0.022521
0.029754 -0.413497 -0.010670
0.025460 -0.412837 -0.000033
0.029709 -0.413635 0.006108
0.033345 -0.414184 0.010227
0.029794 -0.410377 0.016316
0.024650 -0.407569 0.021375
0.015140 -0.409293 0.030919
0.006830 -0.402541 0.038298
-0.007303 -0.397547 0.036054
-0.015521 -0.394175 0.027941
-0.003647 -0.393526 0.028425
-0.010118 -0.392991 0.018940
-0.008083 -0.398395 0.013016
-0.021165 -0.406397 -0.029793
-0.012553 -0.410420 -0.030597
-0.022408 -0.404588 -0.023297
-0.020512 -0.405620 -0.013998
-0.006449 -0.413673 -0.032330
0.003243 -0.416680 -0.031912
-0.002882 -0.408422 -0.006231
-0.016366 -0.408881 -0.008787
0.004058 -0.410535 0.001843
-0.001044 -0.408861 0.009405
0.016771 -0.417675 -0.028481
0.023161 -0.421217 -0.025633
0.022884 -0.421138 -0.014379
0.019261 -0.417790 -0.004385
0.020794 -0.418748 0.004095
0.029071 -0.420928 0.011581
0.027465 -0.417050 0.018789
0.021598 -0.413145 0.022962
0.012713 -0.414202 0.031252
0.002472 -0.411800 0.036440
-0.007632 -0.409205 0.036730
-0.020658 -0.408592 0.033736
-0.017667 -0.395899 0.020933
-0.016816 -0.403420 0.013198
-0.021244 -0.413129 -0.028080
-0.015779 -0.417373 -0.031837
-0.021820 -0.410716 -0.019655
-0.014973 -0.415510 -0.012463
-0.007523 -0.422437 -0.032296
0.005837 -0.423079 -0.029917
-0.005442 -0.416331 -0.007583
-0.013221 -0.415616 0.014291
-0.004487 -0.422012 0.013927
0.007255 -0.416320 0.001125
0.007211 -0.417681 -0.005644
-0.018287 -0.409922 0.014403
0.013777 -0.423537 -0.025725
0.014433 -0.424549 -0.017703
0.013143 -0.418346 0.000209
0.012486 -0.421127 -0.009177
0.019347 -0.425500 0.012975
0.014155 -0.421520 0.005391
0.022154 -0.425019 0.022274
0.017173 -0.418753 0.025937
0.009566 -0.420713 0.029919
0.003233 -0.417783 0.034554
-0.007621 -0.415450 0.036092
-0.018097 -0.414535 0.033884
-0.022322 -0.403616 0.021101
-0.014324 -0.419420 -0.018578
-0.011563 -0.421864 -0.024560
-0.009423 -0.419038 -0.012840
-0.000728 -0.424582 -0.023307
0.001318 -0.420799 -0.010887
-0.014416 -0.420856 0.018401
-0.003730 -0.426432 0.016147
0.006343 -0.421611 0.007606
-0.020977 -0.415899 0.023124
0.006280 -0.424557 -0.017171
0.009081 -0.430285 0.021312
0.004537 -0.429129 0.015807
0.011900 -0.427962 0.028185
-0.004435 -0.425101 0.034302
-0.013769 -0.422733 0.031571
-0.015841 -0.422242 0.024399
-0.004460 -0.422900 -0.017036
-0.008972 -0.426934 0.021198
-0.001631 -0.429478 0.020925
0.001302 -0.428160 0.031677
-0.008172 -0.427189 0.027455
</DataArray>
         </Points>
         <Polys>
            <DataArray Name="connectivity" format="ascii" type="Int32">