<?xml version="1.0" encoding="utf-8"?>
<VTKFile byte_order="LittleEndian" compressor="vtkZLibDataCompressor" type="PolyData"
         version="0.1">
   <PolyData>
      <Piece NumberOfLines="0" NumberOfPoints="456" NumberOfPolys="908" NumberOfStrips="0"
             NumberOfVerts="0">
         <PointData Normals="Normals">
            <DataArray Name="Normals" NumberOfComponents="3" format="ascii" type="Float32">
0.001802 0.770265 -0.637722
0.080536 0.341305 -0.936496
-0.261491 0.594688 -0.760242
0.294673 0.734484 -0.611311
-0.021499 0.850627 -0.525330
0.345921 0.819241 -0.457365
-0.363485 0.290920 -0.885011
-0.281156 0.020009 -0.959454
-0.049834 -0.126800 -0.990676
0.294208 0.012871 -0.955655
0.503436 0.221009 -0.835288
0.485169 0.482857 -0.729013
-0.345770 0.791739 -0.503580
-0.589916 0.520509 -0.617308
0.661767 0.557970 -0.500733
-0.060030 0.949096 -0.309212
0.286543 0.909996 -0.299666
0.603183 0.752306 -0.264964
-0.626172 0.086950 -0.774822
-0.393325 -0.236702 -0.888407
-0.019136 -0.320673 -0.946997
0.384727 -0.209864 -0.898856
0.600386 -0.073036 -0.796368
0.740571 0.202020 -0.640892
-0.390880 0.848657 -0.356363
-0.641616 0.662844 -0.385962
-0.807183 0.285337 -0.516758
0.843082 0.448514 -0.296730
-0.178313 0.981457 -0.070327
0.129993 0.990705 -0.040078
0.407588 0.913118 -0.009411
0.686181 0.726973 0.025805
-0.692318 -0.167745 -0.701824
-0.374273 -0.430478 -0.821345
0.018275 -0.517214 -0.855661
0.451235 -0.446506 -0.772670
0.741746 -0.213542 -0.635777
0.881678 0.085763 -0.463992
-0.480568 0.867476 -0.128603
-0.752529 0.622662 -0.214456
-0.917293 0.266887 -0.295541
-0.877500 -0.126968 -0.462464
0.983050 0.084345 -0.162783
0.897923 0.438573 0.037247
-0.493977 0.854538 0.160471
-0.194235 0.959109 0.205868
0.093216 0.965056 0.244904
0.401454 0.864656 0.302002
0.700688 0.623031 0.347662
-0.634975 -0.473762 -0.610210
-0.275622 -0.644378 -0.713308
0.179437 -0.686019 -0.705110
0.587405 -0.562527 -0.581824
0.862532 -0.269802 -0.428071
-0.782310 0.619270 0.067043
-0.969261 0.243692 -0.033870
-0.961837 -0.196754 -0.190150
-0.724241 -0.498459 -0.476459
0.992782 -0.104265 0.059262
0.921349 0.265987 0.283490
-0.497417 0.792744 0.352326
-0.804969 0.552242 0.216918
-0.187639 0.881658 0.432979
0.124675 0.847234 0.516382
0.422327 0.684092 0.594692
0.658318 0.411783 0.630121
-0.341981 -0.745995 -0.571437
0.156828 -0.773496 -0.614092
0.566156 -0.711792 -0.415715
0.864394 -0.466003 -0.188852
-0.976730 0.213611 0.019218
-0.968529 -0.219517 -0.117318
-0.739264 -0.618277 -0.266876
-0.327919 -0.831465 -0.448482
0.911563 -0.270542 0.309613
0.855486 0.077182 0.512041
-0.327510 0.722976 0.608312
-0.648468 0.568321 0.506460
-0.857704 0.289576 0.424841
-0.064896 0.716154 0.694919
0.224291 0.584408 0.779847
0.429830 0.345194 0.834318
0.597854 0.009791 0.801545
0.101313 -0.868247 -0.485678
0.621683 -0.703553 -0.344272
0.823470 -0.566855 -0.023919
-0.982313 0.013515 0.186759
-0.858319 -0.502964 0.101563
-0.529784 -0.848132 0.000860
-0.287800 -0.952777 -0.096886
0.706708 -0.609876 0.358630
0.725456 -0.309117 0.614947
-0.574177 0.356622 0.736981
-0.330886 0.300884 0.894418
-0.756459 0.131916 0.640599
-0.880762 -0.226682 0.415780
-0.179531 0.242025 0.953516
0.145543 0.213665 0.966004
0.434603 -0.012704 0.900533
0.578957 -0.346069 0.738272
-0.147174 -0.982971 -0.110037
0.135287 -0.989377 -0.053198
0.461124 -0.885561 0.056096
-0.723015 -0.690752 0.010505
-0.374884 -0.911240 -0.170597
-0.192345 -0.976353 -0.098681
0.487159 -0.738418 0.466278
-0.663087 0.202080 0.720749
-0.421341 0.361998 0.831522
-0.947664 -0.069673 0.311575
-0.896955 -0.401038 -0.186122
-0.091893 0.464532 0.880776
0.490090 0.209878 0.846028
0.817550 -0.189365 0.543831
0.057652 -0.997899 -0.029576
0.277703 -0.944416 0.175954
-0.430022 -0.655687 -0.620609
0.149734 -0.840468 -0.520761
0.805859 -0.513081 0.295533
-0.720678 0.643725 0.257376
-0.969378 0.234888 0.071655
-0.043201 0.926581 0.373606
-0.961265 -0.056251 -0.269825
-0.700259 -0.195003 -0.686739
0.572210 0.719875 0.392881
0.961667 0.193115 0.194685
0.974209 -0.193007 0.116898
0.654379 -0.743833 -0.136018
0.000231 -0.451309 -0.892368
0.628216 -0.481259 -0.611338
0.949493 -0.305467 -0.071780
-0.145851 0.987155 -0.065211
-0.728869 0.673207 -0.124668
-0.951319 0.295108 -0.088898
-0.961381 0.179371 -0.208742
0.519013 0.854664 0.013260
-0.835227 0.069999 -0.545432
-0.404560 -0.090469 -0.910025
0.870007 0.487822 0.071541
0.975375 -0.121857 0.183832
0.982112 -0.169571 0.081867
0.945732 -0.284516 0.156977
0.439865 -0.374278 -0.816354
0.874965 -0.264979 -0.405243
-0.060893 0.949572 -0.307580
0.537617 0.841090 -0.059459
-0.380183 0.515798 -0.767732
-0.730638 0.302884 -0.611906
-0.632632 0.548764 -0.546475
-0.776521 0.314961 -0.545724
0.806706 0.528515 0.264381
-0.763865 0.243333 -0.597746
-0.255549 0.193753 -0.947182
0.912706 -0.033668 0.407228
0.946079 -0.197739 0.256581
0.921488 -0.250648 0.296708
0.860115 -0.175777 -0.478858
0.990518 -0.073659 0.115971
0.547978 -0.281675 -0.787641
0.164688 0.905633 -0.390778
0.432818 0.876742 0.209741
0.756380 0.345204 0.555629
0.428279 0.337594 -0.838217
0.196508 -0.127384 -0.972193
0.142483 0.327131 -0.934175
-0.264765 0.414281 -0.870787
-0.647359 0.318294 -0.692542
0.855553 -0.054539 0.514835
-0.539535 0.551969 -0.635792
-0.467636 0.645749 -0.603593
0.196620 0.296361 -0.934618
0.946419 -0.090577 0.309978
0.894906 -0.176264 0.409970
0.913786 -0.171753 0.368098
0.933599 -0.126200 0.335361
0.613672 -0.244079 -0.750888
0.521684 -0.163010 -0.837421
0.926475 -0.009818 -0.376229
0.237521 0.955442 0.175256
0.418938 0.358342 0.834315
0.664550 0.023498 0.746874
0.137739 0.899362 -0.414942
0.072919 0.129094 -0.988948
-0.194807 0.103127 -0.975405
-0.550872 0.087722 -0.829967
-0.719332 0.067204 -0.691408
-0.836378 0.378026 -0.396949
0.875704 -0.240341 0.418783
0.835206 -0.096955 0.541323
-0.621842 0.558521 -0.548969
-0.222881 0.249142 -0.942471
0.627229 -0.204259 -0.751573
0.982376 0.135850 0.128386
0.911286 0.040918 0.409737
0.860480 -0.099890 0.499596
0.985605 -0.003056 -0.169039
0.543883 -0.314258 -0.778096
0.345102 -0.140170 -0.928039
0.557485 -0.000953 -0.830186
-0.016684 0.672416 0.739985
-0.346658 0.904563 0.248179
0.250623 0.241522 0.937473
0.582226 0.190640 0.790361
-0.794510 0.576462 -0.190905
-0.878558 0.016084 -0.477366
-0.938318 -0.037333 -0.343752
-0.929345 -0.219192 -0.297106
-0.961480 -0.230717 -0.149418
-0.997214 0.021301 -0.071484
0.640973 -0.349335 0.683461
0.741145 -0.158922 0.652264
-0.689605 -0.208449 -0.693537
0.296046 -0.488756 -0.820655
0.552984 -0.436744 -0.709551
0.980419 0.168221 0.102373
0.894099 0.157254 0.419354
0.728210 -0.018430 0.685106
0.862087 0.069851 -0.501923
0.202459 -0.264249 -0.942965
0.412245 -0.058501 -0.909193
-0.082868 0.428138 0.899906
-0.522019 0.567756 0.636514
-0.871786 0.364987 0.326761
0.251348 0.206846 0.945536
-0.990566 0.077776 0.112823
-0.966066 -0.076525 0.246699
-0.913221 -0.267192 0.307630
-0.927941 -0.355117 0.113215
-0.933521 -0.313732 0.173524
-0.932024 -0.354171 -0.076771
-0.900257 -0.433552 -0.039627
0.259064 -0.403444 0.877564
0.337104 -0.336443 0.879299
-0.330357 -0.773500 -0.540890
0.121825 -0.699179 -0.704490
0.951214 0.176415 0.253119
0.904180 0.142975 -0.402512
0.780418 0.071036 0.621210
0.223175 -0.129637 0.966120
0.596928 0.005425 0.802276
0.387810 -0.031418 -0.921204
-0.144283 -0.309167 -0.939999
-0.322818 0.186343 0.927936
-0.677547 0.146675 0.720706
-0.829877 0.053923 0.555335
-0.164727 -0.298401 0.940118
-0.817085 -0.207138 0.538020
-0.869764 -0.437579 0.228113
-0.749019 -0.307494 0.586871
-0.679926 -0.330564 0.654544
-0.618373 -0.740612 -0.262885
-0.907803 -0.417885 -0.035583
-0.216310 -0.386230 0.896681
0.893157 0.168960 0.416801
0.896556 0.210096 -0.389932
0.361847 0.081016 -0.928710
-0.340820 -0.213472 0.915572
0.020722 -0.098689 0.994903
0.561636 0.058371 0.825322
-0.408990 -0.147235 -0.900583
-0.672134 -0.354247 -0.650189
-0.531189 -0.213584 0.819890
-0.631357 -0.285644 0.720969
-0.896757 -0.245071 -0.368466
-0.822669 -0.253891 0.508680
0.766772 0.149214 0.624336
0.958777 0.206553 -0.195145
0.107671 0.067321 -0.991905
-0.102720 -0.084595 0.991107
0.037034 -0.060121 0.997504
-0.827573 -0.182006 -0.531033
-0.866966 -0.260179 0.425061
0.663038 0.081306 0.744157
0.980104 0.190551 -0.055562
0.200263 0.114725 -0.973002
-0.813169 -0.112362 -0.571079
-0.165647 -0.149629 0.974768
-0.917077 -0.251846 0.309100
0.651453 0.008028 0.758647
0.985762 0.132194 -0.103915
0.230590 0.099625 -0.967938
-0.831552 -0.070904 -0.550902
-0.947629 -0.181463 0.262811
-0.293201 -0.156677 0.943125
0.674489 -0.015846 0.738115
0.960117 0.122492 -0.251338
0.103919 0.126513 -0.986507
-0.858622 -0.011463 -0.512481
-0.943966 -0.126919 0.304663
-0.323975 -0.142214 0.935316
0.694622 -0.041640 0.718168
0.964716 0.094431 -0.245777
0.133284 0.126939 -0.982915
-0.847722 0.019813 -0.530071
-0.930009 -0.088763 0.356659
-0.273328 -0.143887 0.951098
0.568713 -0.092715 0.817294
0.989318 0.037496 -0.140871
0.203006 0.148306 -0.967881
-0.786299 0.078151 -0.612884
-0.952218 -0.018988 0.304829
-0.307225 -0.101487 0.946210
0.029685 -0.087777 0.995698
0.813884 -0.065576 0.577315
0.970754 0.016702 -0.239496
0.323498 0.148454 -0.934511
-0.620309 0.120937 -0.774978
-0.987900 0.047387 -0.147672
-0.693128 -0.033588 0.720032
-0.079809 -0.053645 0.995366
0.730497 -0.080354 0.678172
0.991238 -0.011776 -0.131564
0.440450 0.163378 -0.882786
-0.638088 0.191800 -0.745692
-0.957516 0.088180 -0.274568
-0.826526 0.046376 0.560984
-0.105123 0.088624 0.990502
0.668166 0.003549 0.744004
0.984896 -0.031217 -0.170307
0.655447 0.165326 -0.736924
-0.526182 0.384298 -0.758583
-0.962664 0.168434 -0.211916
-0.940786 0.193792 0.278150
-0.603696 0.536008 0.590124
0.197926 0.241797 0.949926
0.874792 0.244276 0.418412
0.965569 0.140500 -0.218945
0.800542 0.161667 -0.577059
-0.029579 0.540891 -0.840572
-0.906211 0.367711 -0.208734
-0.926382 0.355536 -0.124140
-0.432913 0.790988 0.432347
0.128323 0.407512 0.904139
-0.632234 0.738795 -0.233372
0.412952 0.199877 0.888549
0.819577 0.179284 0.544197
0.980842 0.104924 -0.164133
0.979576 0.142384 -0.141977
0.822034 0.302923 -0.482180
0.720475 0.424904 -0.548063
0.142688 0.695410 -0.704305
-0.852438 0.514110 -0.095083
-0.798028 0.599380 -0.062415
-0.763295 0.632872 -0.129823
-0.393313 0.684931 0.613331
-0.517511 0.807998 -0.281642
0.042985 0.344261 0.937890
0.319129 0.040561 0.946843
-0.641808 0.600348 -0.477143
0.417315 -0.050677 0.907348
0.909884 -0.132893 0.393002
0.919299 -0.317031 -0.233198
0.955967 -0.275303 0.101667
0.996729 0.066583 -0.045813
0.824255 0.191117 -0.532990
0.734795 0.230154 -0.638048
0.704022 0.016597 -0.709985
0.363191 0.150699 -0.919447
-0.255564 0.696544 -0.670458
-0.608865 0.776567 -0.161949
-0.586503 0.798479 0.135814
-0.874673 0.483055 -0.040062
-0.680934 0.522324 0.513329
-0.361709 0.129398 0.923267
-0.779029 0.626735 0.017786
-0.561192 0.200691 -0.802986
-0.715720 0.437285 -0.544543
-0.058361 -0.212455 0.975427
0.229220 -0.276080 0.933402
-0.955854 -0.238729 -0.171322
0.267904 -0.217028 0.938683
0.405175 -0.183231 0.895689
0.824168 -0.528380 0.203867
0.736000 -0.619969 -0.271924
0.732861 -0.656691 0.177967
0.748786 -0.379931 0.543113
0.963385 -0.202814 -0.175372
0.784645 -0.022985 -0.619519
0.763106 0.031070 -0.645527
0.610860 -0.202051 -0.765523
0.256043 -0.121217 -0.959035
-0.274930 0.194311 -0.941624
-0.464580 0.744362 -0.479677
-0.257614 0.962470 -0.085358
-0.304962 0.869490 0.388569
-0.637838 0.389982 0.664137
-0.974788 0.213043 0.066334
-0.674651 0.042659 0.736903
-0.309275 -0.139096 0.940745
-0.917624 0.039633 -0.395469
-0.514602 -0.249746 -0.820251
-0.541898 -0.151019 -0.826764
-0.086289 -0.157910 0.983676
0.149837 -0.219660 0.964001
-0.563968 -0.074166 0.822459
-0.911206 -0.401939 0.090271
0.236271 -0.242893 0.940840
0.429267 -0.672291 0.603120
0.488615 -0.860537 -0.143988
0.364479 -0.906345 -0.213761
0.315225 -0.835102 0.450819
0.667571 -0.696629 0.262787
0.748279 -0.099234 -0.655921
0.682002 -0.136847 -0.718433
0.525115 -0.270636 -0.806852
0.242453 -0.255318 -0.935964
-0.180093 -0.022591 -0.983390
-0.695472 0.160330 -0.700437
-0.634308 0.762058 0.130080
-0.505313 0.342637 0.791997
-0.862147 -0.442858 -0.246129
-0.847730 -0.319270 0.423580
-0.557615 -0.405069 0.724558
-0.637459 -0.598751 -0.484916
-0.361615 -0.535886 -0.762929
-0.133630 -0.652197 0.746178
0.171069 -0.674443 0.718235
-0.629390 -0.236008 0.740384
-0.486903 -0.234281 0.841450
-0.445025 -0.492660 0.747822
-0.569909 -0.775635 0.271282
-0.388133 -0.792595 -0.470262
0.165249 -0.971204 0.171626
0.170678 -0.967746 -0.185303
-0.042601 -0.972351 0.229604
-0.069554 -0.922806 -0.378933
0.071385 -0.838464 0.540262
0.275390 -0.890944 0.361080
0.623353 -0.657996 -0.422459
0.560971 -0.126073 -0.818179
0.432441 -0.282113 -0.856392
0.238002 -0.273281 -0.932026
-0.131094 -0.181175 -0.974674
-0.769722 -0.385874 -0.508556
-0.981272 0.074660 0.177568
-0.418906 -0.783823 -0.458409
-0.605701 -0.767033 -0.211628
-0.426410 -0.904520 -0.004301
-0.164714 -0.827014 -0.537510
-0.092421 -0.994825 0.042214
-0.860731 -0.470662 0.193955
-0.553066 -0.561434 0.615556
-0.373460 -0.687907 0.622344
-0.284494 -0.697075 0.658141
-0.051092 -0.975455 -0.214192
-0.114000 -0.863752 0.490853
0.148059 -0.985985 0.076890
0.409762 -0.459286 -0.788132
0.031087 -0.471463 -0.881338
-0.519429 -0.630680 -0.576572
-0.710903 -0.702470 -0.033951
-0.249898 -0.920025 -0.301837
-0.519729 -0.807177 0.279903
-0.217718 -0.969229 0.114864
-0.024340 -0.900412 -0.434357
-0.382915 -0.901852 -0.200099
</DataArray>
         </PointData>
         <Points>
            <DataArray NumberOfComponents="3" format="ascii" type="Float32">	-0.002824 0.018854 -0.012544
0.002639 0.011628 -0.018349
-0.008419 0.015911 -0.015011
0.004642 0.019104 -0.011796
-0.002587 0.020797 -0.008657
0.009589 0.018598 -0.008256
-0.011273 0.009219 -0.018319
-0.007661 0.001665 -0.022344
0.001375 -0.002027 -0.023353
0.009379 0.003913 -0.021296
0.013291 0.008321 -0.016039
0.010996 0.015830 -0.012084
-0.008582 0.018351 -0.010738
-0.014041 0.012351 -0.014040
0.016275 0.013447 -0.008537
-0.003354 0.022021 -0.002469
0.005976 0.021089 -0.002759
0.013529 0.017801 -0.002319
-0.014696 0.004270 -0.018127
-0.009236 -0.002010 -0.021479
0.001350 -0.005138 -0.022986
0.010008 -0.001979 -0.021566
0.015385 0.001330 -0.017522
0.017788 0.005881 -0.013608
-0.010262 0.019800 -0.004642
-0.015932 0.014685 -0.007895
-0.018544 0.007033 -0.012649
0.019318 0.011741 -0.002470
-0.004491 0.021882 0.003284
0.001535 0.021874 0.004717
0.008197 0.020091 0.005156
0.015699 0.015657 0.005055
-0.015529 -0.002075 -0.017904
-0.007997 -0.007190 -0.021174
0.002418 -0.008185 -0.022098
0.011296 -0.006072 -0.020017
0.018157 -0.001899 -0.014584
0.021919 0.004246 -0.006819
-0.011244 0.019704 0.001152
-0.017475 0.015033 -0.001937
-0.021410 0.006699 -0.006983
-0.020048 -0.001217 -0.012538
0.023367 0.001961 -0.003961
0.020633 0.010200 0.003150
-0.012905 0.017724 0.007233
-0.006440 0.020047 0.008629
-0.000056 0.020188 0.010482
0.006278 0.018515 0.011810
0.014778 0.012427 0.012420
-0.014112 -0.007920 -0.017259
-0.005834 -0.010991 -0.019921
0.004034 -0.012596 -0.019723
0.014422 -0.009006 -0.016186
0.020342 -0.005356 -0.010845
-0.018639 0.013115 0.004151
-0.022650 0.005453 -0.001333
-0.021911 -0.003882 -0.007427
-0.016070 -0.010474 -0.013558
0.023305 -0.003092 0.001417
0.020324 0.005381 0.009612
-0.014817 0.013975 0.011099
-0.020757 0.008824 0.006038
-0.007615 0.016686 0.013853
0.000258 0.016115 0.016317
0.007738 0.012477 0.017875
0.013414 0.007314 0.017774
-0.007285 -0.013371 -0.017821
0.003885 -0.014844 -0.018103
0.014809 -0.012517 -0.013084
0.021773 -0.007737 -0.006080
-0.023370 -0.000381 0.000567
-0.021187 -0.008335 -0.005670
-0.014244 -0.012920 -0.014389
-0.004446 -0.015211 -0.017261
0.020844 -0.005359 0.009500
0.018457 0.000295 0.014753
-0.008091 0.013254 0.017353
-0.014733 0.011247 0.014453
-0.020339 0.005769 0.010018
-0.002192 0.011801 0.020302
0.002672 0.009830 0.021314
0.007321 0.004770 0.021686
0.013279 -0.003210 0.019338
0.007336 -0.016189 -0.015452
0.015969 -0.015345 -0.006697
0.020625 -0.011520 0.000910
-0.023462 -0.001771 0.004747
-0.022165 -0.008304 -0.001185
-0.015236 -0.013801 -0.008153
-0.006238 -0.015967 -0.012451
0.017929 -0.015328 0.003661
0.016799 -0.009037 0.013917
-0.015416 0.006737 0.016483
-0.008370 0.007989 0.020153
-0.019414 0.000525 0.011622
-0.020487 -0.006674 0.007979
-0.002171 0.005596 0.022940
0.004361 0.001655 0.022992
0.007678 -0.005475 0.021743
0.011465 -0.011862 0.016558
0.002229 -0.017645 -0.012278
0.008233 -0.018396 -0.010005
0.014766 -0.017426 -0.003406
-0.017092 -0.013518 -0.000896
-0.009502 -0.016485 -0.005582
-0.001900 -0.018343 -0.006720
0.012696 -0.016938 0.009745
-0.013817 -0.005250 0.015158
-0.007496 -0.000152 0.018105
-0.017147 -0.012794 0.010283
-0.014298 -0.018694 0.003248
-0.001926 -0.002669 0.020784
0.004328 -0.006228 0.022813
0.007897 -0.012659 0.019128
0.004665 -0.018728 -0.004556
0.010425 -0.018714 0.001078
-0.008245 -0.021587 -0.000372
0.000901 -0.022398 0.001170
0.009071 -0.017384 0.013298
-0.012899 -0.012785 0.022694
-0.016667 -0.019931 0.016886
-0.005925 -0.008647 0.026188
-0.014982 -0.024566 0.009760
-0.012267 -0.029721 0.005487
0.001122 -0.011960 0.028361
0.004661 -0.019192 0.026621
0.004933 -0.025833 0.022777
0.007762 -0.020723 0.007038
-0.006932 -0.031897 0.003615
-0.000018 -0.032787 0.006817
0.004416 -0.031499 0.016459
-0.008277 -0.010733 0.032239
-0.013668 -0.015254 0.027118
-0.016896 -0.022658 0.020935
-0.017146 -0.029761 0.015401
-0.002367 -0.013103 0.035358
-0.014606 -0.036275 0.007090
-0.011729 -0.038005 0.004140
0.002780 -0.017297 0.035695
0.005536 -0.023172 0.034667
0.003186 -0.037170 0.024150
0.003552 -0.028678 0.030813
-0.001887 -0.041441 0.007742
0.003538 -0.041305 0.014463
-0.009498 -0.010773 0.038826
-0.003967 -0.012269 0.041089
-0.016727 -0.015019 0.034350
-0.018037 -0.022956 0.032445
-0.019135 -0.030354 0.025306
-0.019548 -0.038038 0.015193
0.000495 -0.015966 0.042787
-0.017031 -0.043755 0.008542
-0.014535 -0.046987 0.003059
0.001927 -0.021038 0.042788
0.000719 -0.035370 0.032815
0.000749 -0.027427 0.039401
0.002867 -0.048878 0.014053
0.002278 -0.042916 0.024438
-0.005699 -0.048819 0.006854
-0.013251 -0.010029 0.043733
-0.007580 -0.010796 0.048245
-0.003398 -0.017008 0.048868
-0.024707 -0.009745 0.032494
-0.025735 -0.019641 0.034605
-0.025988 -0.028631 0.031376
-0.026670 -0.034476 0.024063
-0.024349 -0.041239 0.018967
-0.002234 -0.026171 0.046681
-0.021024 -0.047633 0.011069
-0.019126 -0.050934 0.005677
-0.016728 -0.052423 -0.000903
-0.001749 -0.041189 0.036980
-0.002902 -0.034897 0.041927
0.003018 -0.052874 0.023387
0.000465 -0.046860 0.030021
-0.011746 -0.056489 0.004715
-0.001196 -0.057671 0.010875
0.004222 -0.055243 0.016328
-0.013669 -0.009978 0.048410
-0.006446 -0.019558 0.051444
-0.004611 -0.029186 0.048495
-0.025181 -0.007030 0.035143
-0.031566 -0.010078 0.028958
-0.032687 -0.024724 0.029320
-0.032080 -0.034801 0.024665
-0.029624 -0.044487 0.021131
-0.026154 -0.050378 0.012908
-0.004393 -0.045537 0.040763
-0.004398 -0.038851 0.046614
-0.025519 -0.053422 0.002268
-0.022080 -0.057599 -0.002811
-0.016484 -0.059835 -0.001401
0.003787 -0.057970 0.022267
0.001364 -0.056418 0.028549
-0.001792 -0.051272 0.035418
0.004071 -0.060733 0.016042
-0.013629 -0.061070 0.005041
-0.006765 -0.062167 0.009440
-0.001028 -0.062668 0.011500
-0.017265 -0.012715 0.051344
-0.028176 -0.008783 0.040982
-0.012399 -0.022191 0.053460
-0.010048 -0.031408 0.053105
-0.035370 -0.009924 0.032775
-0.036357 -0.026200 0.030823
-0.036696 -0.035514 0.029212
-0.034735 -0.044657 0.027441
-0.026933 -0.053909 0.019992
-0.027606 -0.057738 0.005347
-0.008571 -0.048131 0.045019
-0.007899 -0.041244 0.051175
-0.024143 -0.060932 -0.001136
-0.017822 -0.063586 -0.000336
-0.013620 -0.065208 0.007554
0.004478 -0.064054 0.024173
0.000275 -0.058630 0.032877
-0.005290 -0.057588 0.038386
0.005540 -0.066845 0.018063
-0.006560 -0.067845 0.010263
0.001198 -0.068470 0.012549
-0.020093 -0.017658 0.052150
-0.032939 -0.014784 0.045108
-0.036655 -0.017269 0.037748
-0.015146 -0.030526 0.056553
-0.037144 -0.025517 0.037480
-0.036189 -0.036510 0.037289
-0.033423 -0.044844 0.035593
-0.027803 -0.059971 0.027110
-0.023649 -0.062935 0.016899
-0.022648 -0.066056 0.024538
-0.026872 -0.064559 0.006587
-0.013275 -0.050157 0.046128
-0.011756 -0.041428 0.054507
-0.022808 -0.066163 0.000899
-0.014750 -0.070166 0.009963
0.004987 -0.071343 0.027914
0.006234 -0.073314 0.017992
-0.000808 -0.069654 0.035285
-0.010560 -0.057811 0.042291
-0.005193 -0.068532 0.039597
-0.000073 -0.074398 0.012260
-0.008386 -0.072861 0.010908
-0.021562 -0.031408 0.054859
-0.030297 -0.029497 0.050462
-0.034096 -0.030688 0.044735
-0.018617 -0.044326 0.052011
-0.032229 -0.040066 0.044377
-0.023252 -0.067322 0.032071
-0.025662 -0.059195 0.034790
-0.028543 -0.052133 0.038894
-0.020530 -0.070169 0.014236
-0.018564 -0.077400 0.026354
-0.019365 -0.053570 0.043577
0.009502 -0.087517 0.025967
0.009636 -0.087494 0.018537
0.003673 -0.088660 0.013310
-0.016834 -0.062979 0.039429
-0.011332 -0.069473 0.041008
0.001081 -0.087475 0.035812
-0.005293 -0.089312 0.013865
-0.008416 -0.080550 0.013701
-0.025851 -0.043347 0.049298
-0.018839 -0.068513 0.037484
-0.011721 -0.092527 0.021349
-0.013228 -0.090384 0.036145
0.012377 -0.118808 0.032375
0.015500 -0.111383 0.020673
0.009306 -0.117056 0.011208
-0.007184 -0.089551 0.040414
-0.000007 -0.119596 0.038676
-0.003876 -0.118866 0.018204
-0.005907 -0.121107 0.035217
0.018023 -0.149254 0.033613
0.023323 -0.146802 0.022373
0.015134 -0.146968 0.009494
0.003926 -0.150061 0.016531
0.008447 -0.151323 0.036392
0.001653 -0.152549 0.030742
0.023852 -0.181366 0.032343
0.028265 -0.178491 0.021835
0.020230 -0.178091 0.008701
0.008534 -0.178168 0.015196
0.007217 -0.180569 0.027054
0.013355 -0.179967 0.034470
0.026608 -0.208901 0.030571
0.030680 -0.206911 0.016549
0.019990 -0.207066 0.007786
0.011585 -0.209313 0.013666
0.010762 -0.210628 0.025286
0.016749 -0.210520 0.032328
0.029874 -0.243724 0.027391
0.033119 -0.241882 0.014681
0.023533 -0.240884 0.005257
0.013790 -0.241361 0.010376
0.012711 -0.244428 0.022216
0.020102 -0.244595 0.029656
0.031961 -0.276106 0.023228
0.034713 -0.274444 0.012436
0.025026 -0.272265 0.002398
0.014061 -0.273960 0.007926
0.013635 -0.276578 0.021083
0.021387 -0.277911 0.026518
0.021458 -0.308136 0.024236
0.029082 -0.307808 0.022499
0.033952 -0.306110 0.008272
0.027264 -0.304709 -0.000818
0.017744 -0.304570 0.001698
0.011645 -0.305888 0.010275
0.013636 -0.307967 0.020930
0.019317 -0.340818 0.022716
0.030157 -0.341174 0.020194
0.033345 -0.341752 0.006349
0.025309 -0.338932 -0.005429
0.015720 -0.337535 -0.002816
0.010877 -0.338321 0.007162
0.010354 -0.339804 0.018637
0.016534 -0.367517 0.023010
0.030766 -0.370365 0.017320
0.030150 -0.368495 0.001437
0.025471 -0.365355 -0.008830
0.014627 -0.362483 -0.010451
0.008586 -0.367748 0.005634
0.007242 -0.367086 0.019398
0.002655 -0.379981 0.023009
0.015523 -0.381394 0.025617
0.029925 -0.386391 0.020785
0.029547 -0.384766 -0.000447
0.022030 -0.377881 -0.013768
0.012115 -0.375266 -0.018196
0.008116 -0.377884 -0.009247
0.006616 -0.380674 0.003266
-0.002897 -0.386977 0.028552
0.011980 -0.394159 0.031420
-0.000454 -0.386982 0.014488
0.022959 -0.397253 0.028606
0.035306 -0.397072 0.021105
0.032968 -0.395633 0.008448
0.031145 -0.395746 -0.001877
0.027072 -0.390989 -0.013137
0.020784 -0.387953 -0.020689
0.006791 -0.387902 -0.033406
0.011160 -0.382117 -0.023459
0.004383 -0.386023 -0.013469
0.003587 -0.387849 0.000222
-0.009434 -0.391673 0.029127
-0.009795 -0.390173 0.014384
0.002353 -0.398568 0.036067
0.010398 -0.402182 0.034107
-0.006731 -0.392187 0.009106
0.021525 -0.404413 0.029318
0.035446 -0.405787 0.021325
0.032663 -0.405177 0.008789
0.030062 -0.406264 -0.000232
0.032818 -0.405157 -0.007829
0.025956 -0.399818 -0.018001
0.019136 -0.394624 -0.027519
0.017446 -0.402156 -0.030315
0.011730 -0.397800 -0.036877
0.002937 -0.393959 -0.037526
-0.000852 -0.391272 -0.025995
-0.001801 -0.392515 -0.016571
-0.002039 -0.394480 -0.001938
-0.016769 -0.397147 0.027677
-0.009767 -0.402873 0.035207
-0.017997 -0.395692 0.022044
-0.011068 -0.400730 0.006348
-0.016787 -0.397566 0.012051
-0.002143 -0.406302 0.037033
0.007871 -0.408459 0.034121
-0.002281 -0.400084 -0.001555
0.017481 -0.411851 0.029677
0.024589 -0.413262 0.027714
0.031195 -0.414066 0.022521
0.029754 -0.413497 0.010670
0.025460 -0.412837 0.000033
0.029709 -0.413635 -0.006108
0.033345 -0.414184 -0.010227
0.029794 -0.410377 -0.016316
0.024650 -0.407569 -0.021375
0.015140 -0.409293 -0.030919
0.006830 -0.402541 -0.038298
-0.007303 -0.397547 -0.036054
-0.015521 -0.394175 -0.027941
-0.003647 -0.393526 -0.028425
-0.010118 -0.392991 -0.018940
-0.008083 -0.398395 -0.013016
-0.022408 -0.404588 0.023297
-0.021165 -0.406397 0.029793
-0.012553 -0.410420 0.030597
-0.020512 -0.405620 0.013998
-0.002882 -0.408422 0.006231
-0.016366 -0.408881 0.008787
-0.006449 -0.413673 0.032330
0.003243 -0.416680 0.031912
-0.001044 -0.408861 -0.009405
0.004058 -0.410535 -0.001843
0.016771 -0.417675 0.028481
0.023161 -0.421217 0.025633
0.022884 -0.421138 0.014379
0.019261 -0.417790 0.004385
0.020794 -0.418748 -0.004095
0.029071 -0.420928 -0.011581
0.027465 -0.417050 -0.018789
0.021598 -0.413145 -0.022962
0.012713 -0.414202 -0.031252
0.002472 -0.411800 -0.036440
-0.007632 -0.409205 -0.036730
-0.020658 -0.408592 -0.033736
-0.017667 -0.395899 -0.020933
-0.016816 -0.403420 -0.013198
-0.021820 -0.410716 0.019655
-0.021244 -0.413129 0.028080
-0.015779 -0.417373 0.031837
-0.014973 -0.415510 0.012463
-0.005442 -0.416331 0.007583
-0.007523 -0.422437 0.032296
0.005837 -0.423079 0.029917
-0.018287 -0.409922 -0.014403
-0.013221 -0.415616 -0.014291
-0.004487 -0.422012 -0.013927
0.007255 -0.416320 -0.001125
0.007211 -0.417681 0.005644
0.013777 -0.423537 0.025725
0.014433 -0.424549 0.017703
0.013143 -0.418346 -0.000209
0.012486 -0.421127 0.009177
0.014155 -0.421520 -0.005391
0.019347 -0.425500 -0.012975
0.022154 -0.425019 -0.022274
0.017173 -0.418753 -0.025937
0.009566 -0.420713 -0.029919
0.003233 -0.417783 -0.034554
-0.007621 -0.415450 -0.036092
-0.018097 -0.414535 -0.033884
-0.022322 -0.403616 -0.021101
-0.009423 -0.419038 0.012840
-0.014324 -0.419420 0.018578
-0.011563 -0.421864 0.024560
0.001318 -0.420799 0.010887
-0.000728 -0.424582 0.023307
-0.020977 -0.415899 -0.023124
-0.014416 -0.420856 -0.018401
-0.003730 -0.426432 -0.016147
0.006343 -0.421611 -0.007606
0.006280 -0.424557 0.017171
0.004537 -0.429129 -0.015807
0.009081 -0.430285 -0.021312
0.011900 -0.427962 -0.028185
-0.004435 -0.425101 -0.034302
-0.013769 -0.422733 -0.031571
-0.015841 -0.422242 -0.024399
-0.004460 -0.422900 0.017036
-0.008972 -0.426934 -0.021198
-0.001631 -0.429478 -0.020925
0.001302 -0.428160 -0.031677
-0.008172 -0.427189 -0.027455
</DataArray>
         </Points>
         <Polys>
            <DataArray Name="connectivity" format="ascii" type="Int32">