<?xml version="1.0"?>
<VTKFile type="PolyData" version="0.1" byte_order="LittleEndian" compressor="vtkZLibDataCompressor">
	<PolyData>
		<Piece NumberOfPoints="456" NumberOfVerts="0" NumberOfLines="0" NumberOfStrips="0" NumberOfPolys="908">
		<PointData Normals="Normals">
		<DataArray type="Float32" Name="Normals" NumberOfComponents="3" format="ascii">
			-0.319322 0.769227 0.553465
			-0.397002 0.339365 0.852773
			-0.607350 0.594978 0.526429
			-0.283226 0.849914 0.444331
			-0.053760 0.731801 0.679394
			0.069091 0.816506 0.573189
			-0.755097 0.291650 0.587170
			-0.715441 0.020110 0.698384
			-0.525626 -0.128079 0.841020
			-0.213542 0.009660 0.976887
			0.023199 0.216774 0.975946
			0.053072 0.478885 0.876272
			-0.550479 0.792925 0.261233
			-0.818026 0.522950 0.239492
			-0.206186 0.948950 0.238707
			0.096728 0.907854 0.407976
			0.322809 0.553330 0.767867
			0.388106 0.748387 0.537858
			-0.926856 0.089363 0.364627
			-0.777273 -0.235791 0.583309
			-0.475701 -0.321988 0.818555
			-0.101377 -0.213477 0.971674
			0.133488 -0.077761 0.987995
			0.327774 0.196705 0.924051
			-0.514558 0.850344 0.110206
			-0.745916 0.665947 0.011099
			-0.956090 0.289224 0.047345
			-0.185009 0.982363 -0.027096
			0.095048 0.989866 0.105500
			0.349095 0.910730 0.220688
			0.582167 0.443172 0.681675
			0.607505 0.723010 0.328929
			-0.947523 -0.164826 0.273918
			-0.725754 -0.429541 0.537379
			-0.397209 -0.518612 0.757144
			0.020859 -0.450298 0.892635
			0.337602 -0.218810 0.915504
			0.537897 0.079951 0.839211
			-0.474995 0.870040 -0.131949
			-0.754612 0.626689 -0.194477
			-0.941268 0.271757 -0.200405
			-0.992069 -0.122609 -0.027664
			-0.338853 0.857633 -0.386839
			-0.057004 0.960547 -0.272214
			0.209771 0.964886 -0.158084
			0.503056 0.862790 -0.050277
			0.776044 0.078440 0.625781
			0.797406 0.433464 0.419824
			0.782916 0.619514 0.056957
			-0.852664 -0.470998 0.226108
			-0.586184 -0.643830 0.491804
			-0.181130 -0.688124 0.702621
			0.233764 -0.566802 0.789993
			0.546452 -0.275454 0.790896
			-0.637730 0.623924 -0.451685
			-0.855866 0.249269 -0.453164
			-0.932919 -0.191422 -0.304990
			-0.866313 -0.494927 0.067437
			-0.245674 0.796145 -0.552989
			-0.584026 0.557281 -0.590213
			0.063834 0.883379 -0.464290
			0.374476 0.847320 -0.376585
			0.668438 0.682565 -0.295457
			0.894908 -0.109928 0.432498
			0.941258 0.261126 0.214118
			0.887357 0.408957 -0.212955
			-0.576299 -0.744877 0.336211
			-0.156731 -0.775323 0.611809
			0.296232 -0.715697 0.632475
			0.664018 -0.471317 0.580466
			-0.838959 0.219278 -0.498062
			-0.904889 -0.214087 -0.367889
			-0.779578 -0.614363 -0.121720
			-0.505155 -0.830276 0.235500
			0.030537 0.725779 -0.687250
			-0.299904 0.572877 -0.762804
			-0.528064 0.295188 -0.796250
			0.299786 0.717589 -0.628646
			0.590261 0.584304 -0.556939
			0.791163 0.343994 -0.505696
			0.945634 -0.275352 0.173081
			0.997088 0.072997 -0.022065
			0.914929 0.007563 -0.403545
			-0.144523 -0.869563 0.472201
			0.380234 -0.707669 0.595506
			0.708371 -0.571642 0.414049
			-0.762333 0.019490 -0.646891
			-0.703073 -0.497809 -0.507813
			-0.468379 -0.845054 -0.257884
			-0.303424 -0.951240 -0.055463
			-0.124099 0.361126 -0.924223
			0.166580 0.304211 -0.937927
			-0.338109 0.137306 -0.931037
			-0.566010 -0.220917 -0.794248
			0.324622 0.244516 -0.913691
			0.608183 0.214342 -0.764311
			0.820560 -0.013800 -0.571393
			0.789533 -0.613398 0.019537
			0.931379 -0.312349 -0.187006
			0.862220 -0.348244 -0.367836
			-0.186047 -0.982265 0.023282
			0.089814 -0.990226 0.106705
			0.428713 -0.888146 0.165538
			-0.632035 -0.686539 -0.359438
			-0.414828 -0.909328 -0.032253
			-0.220399 -0.975375 -0.008292
			-0.222699 0.207058 -0.952645
			0.048277 0.365731 -0.929468
			-0.679395 -0.063698 -0.731003
			-0.879120 -0.396135 -0.265001
			0.357091 0.466458 -0.809261
			0.842937 0.208394 -0.496015
			0.647347 -0.740534 -0.180425
			0.977742 -0.193260 -0.081682
			0.032439 -0.998263 0.049170
			0.323787 -0.945738 -0.027243
			-0.674953 -0.654160 0.341339
			-0.116903 -0.842128 0.526455
			-0.502421 0.648301 -0.572083
			-0.816408 0.240605 -0.524963
			0.149156 0.927394 -0.343064
			-0.975128 -0.051127 -0.215665
			-0.940338 -0.192038 0.280864
			0.694138 0.717155 -0.062134
			0.938356 0.187824 0.290192
			0.846902 -0.517302 0.123114
			0.913371 -0.198466 0.355476
			0.508814 -0.747816 0.426473
			-0.414819 -0.452709 0.789291
			0.272481 -0.485831 0.830495
			-0.154889 0.987879 -0.010270
			-0.695276 0.677232 -0.240724
			-0.877757 0.300473 -0.373173
			-0.946542 0.184618 -0.264527
			0.463549 0.851656 0.244549
			-0.992160 0.073970 0.100732
			-0.776310 -0.089582 0.623955
			0.798735 0.482874 0.358963
			0.944644 -0.127231 0.302422
			0.805950 -0.311033 0.503691
			0.908555 -0.175114 0.379293
			0.907169 -0.289728 0.305126
			0.019629 -0.378115 0.925551
			0.593567 -0.270705 0.757889
			-0.199762 0.949417 0.242285
			0.443608 0.837863 0.318116
			-0.702897 0.516790 0.488737
			-0.932854 0.306157 0.189872
			-0.812668 0.551585 0.187951
			-0.939104 0.318605 0.128739
			0.835953 0.524233 0.162361
			-0.950651 0.246803 0.188020
			-0.652317 0.193758 0.732761
			0.995997 -0.038303 0.080769
			0.956132 -0.202826 0.211363
			0.951053 -0.255535 0.173779
			0.626855 -0.309424 0.715059
			0.917679 -0.122006 0.378127
			0.137019 -0.286114 0.948348
			-0.044970 0.904032 0.425092
			0.483703 0.874579 0.033821
			0.932496 0.341668 -0.117105
			-0.036822 0.333799 0.941925
			-0.296739 -0.130065 0.946059
			-0.314419 0.324838 0.891976
			-0.637877 0.414477 0.649092
			-0.891182 0.320957 0.320595
			0.997235 -0.058699 -0.045572
			-0.765394 0.554098 0.327332
			-0.684645 0.647491 0.334688
			-0.235958 0.293772 0.926295
			0.982570 -0.095578 0.159438
			0.982003 -0.180815 0.054549
			0.981312 -0.176477 0.076707
			0.983693 -0.131078 0.123155
			0.219043 -0.248747 0.943475
			0.215145 -0.157928 0.963727
			0.594275 0.083877 0.799876
			0.297122 0.954323 -0.031399
			0.771768 0.357215 -0.526091
			0.939179 0.020803 -0.342798
			-0.081392 0.897918 0.432572
			-0.420799 0.127130 0.898202
			-0.635448 0.102726 0.765279
			-0.873615 0.089631 0.478292
			-0.954982 0.070310 0.288211
			-0.923881 0.382251 -0.018133
			0.969233 -0.244765 0.026019
			0.990592 -0.100969 -0.092367
			-0.798100 0.561258 0.219151
			-0.613194 0.248965 0.749673
			0.234648 -0.208986 0.949350
			0.939582 0.130388 0.316520
			0.998673 0.036310 0.036525
			0.992771 -0.104096 -0.059747
			0.813065 -0.009014 0.582104
			0.148900 -0.318571 0.936130
			-0.093368 -0.143625 0.985218
			0.141571 -0.005442 0.989913
			0.351684 0.673664 -0.649996
			-0.175153 0.906941 -0.383118
			0.672475 0.241539 -0.699597
			0.887575 0.188479 -0.420342
			-0.783292 0.580767 -0.221729
			-0.999789 0.020405 0.002361
			-0.990526 -0.032436 -0.133439
			-0.963397 -0.214257 -0.161122
			-0.928284 -0.225381 -0.295791
			-0.927136 0.026942 -0.373755
			0.880221 -0.351936 -0.318361
			0.958159 -0.162193 -0.235850
			-0.923936 -0.205564 0.322624
			-0.091108 -0.491766 0.865948
			0.190430 -0.441075 0.877034
			0.928843 0.162720 0.332827
			0.988138 0.152756 0.015743
			0.956667 -0.021571 -0.290384
			0.562723 0.064090 0.824157
			-0.222890 -0.266899 0.937595
			-0.017317 -0.062286 0.997909
			0.367348 0.430032 -0.824699
			-0.141740 0.571768 -0.808079
			-0.601998 0.370556 -0.707309
			0.670995 0.206845 -0.712026
			-0.816149 0.083701 -0.571747
			-0.739586 -0.070555 -0.669353
			-0.672019 -0.261404 -0.692862
			-0.784331 -0.349557 -0.512479
			-0.767061 -0.308065 -0.562772
			-0.875701 -0.348906 -0.333787
			-0.830809 -0.428433 -0.355248
			0.627109 -0.403546 -0.666247
			0.704838 -0.336986 -0.624215
			-0.534661 -0.772422 0.342785
			-0.193671 -0.700985 0.686376
			0.969295 0.171309 0.176410
			0.649250 0.137133 0.748110
			0.971340 0.067481 -0.227915
			0.629273 -0.129440 -0.766330
			0.883141 0.003220 -0.469095
			-0.037789 -0.035105 0.998669
			-0.530658 -0.309779 0.788948
			0.156402 0.189653 -0.969314
			-0.252664 0.151717 -0.955585
			-0.467664 0.059584 -0.881896
			0.285611 -0.295981 -0.911494
			-0.474765 -0.201557 -0.856723
			-0.689310 -0.432174 -0.581444
			-0.417727 -0.302216 -0.856837
			-0.312875 -0.325601 -0.892241
			-0.840919 -0.412672 -0.350082
			-0.674808 -0.737422 -0.029034
			0.208691 -0.383573 -0.899623
			0.986284 0.164425 -0.014377
			0.659598 0.204271 0.723328
			-0.048033 0.077452 0.995839
			0.443694 -0.097243 -0.890887
			0.095706 -0.210050 -0.972995
			0.850420 0.056416 -0.523072
			-0.740960 -0.146282 0.655423
			-0.883386 -0.351361 0.310119
			-0.093673 -0.209236 -0.973368
			-0.262792 -0.280837 -0.923077
			-0.970312 -0.240442 -0.026119
			-0.546265 -0.248324 -0.799956
			0.946200 0.145747 -0.288902
			0.811055 0.200684 0.549468
			-0.275490 0.065146 0.959094
			0.309270 -0.082440 -0.947394
			0.409095 -0.058781 -0.910596
			-0.967520 -0.178038 0.179461
			-0.645940 -0.254496 -0.719719
			0.879109 0.078621 -0.470092
			0.900902 0.184783 0.392722
			-0.148896 0.112054 0.982483
			-0.960383 -0.108531 0.256683
			0.177141 -0.147147 -0.973123
			-0.757998 -0.246037 -0.604074
			0.854434 0.005436 -0.519533
			0.904445 0.126313 0.407461
			-0.083660 0.096770 0.991784
			-0.962601 -0.066945 0.262524
			-0.819967 -0.175559 -0.544825
			0.014229 -0.153497 -0.988046
			0.853970 -0.018608 -0.519991
			0.850958 0.116524 0.512144
			-0.177529 0.124359 0.976226
			-0.967638 -0.007287 0.252240
			-0.822710 -0.120971 -0.555440
			-0.051786 -0.138864 -0.988957
			0.847275 -0.044537 -0.529283
			0.876338 0.088457 0.473504
			-0.110458 0.124621 0.986037
			-0.951343 0.023892 0.307205
			-0.817234 -0.082814 -0.570324
			-0.037179 -0.140804 -0.989339
			0.724081 -0.094735 -0.683178
			0.938796 0.031544 0.343025
			-0.003733 0.145611 0.989334
			-0.896117 0.081749 0.436224
			-0.869551 -0.012995 -0.493673
			-0.108658 -0.098234 -0.989214
			0.197905 -0.086393 -0.976407
			0.899877 -0.069389 -0.430588
			0.915188 0.010714 0.402885
			0.157260 0.145126 0.976835
			-0.744819 0.123320 0.655772
			-0.998297 0.052881 -0.024615
			-0.560758 -0.028449 -0.827490
			0.053176 -0.051620 -0.997250
			0.813582 -0.083522 -0.575421
			0.965138 -0.017733 0.261144
			0.318137 0.159442 0.934541
			-0.732919 0.194331 0.651970
			-0.985435 0.093294 0.142174
			-0.743425 0.052035 -0.666792
			-0.001791 0.090776 -0.995870
			0.739210 0.000842 -0.673474
			0.962235 -0.037185 0.269667
			0.575150 0.160356 0.802177
			-0.603159 0.386152 0.697916
			-0.978378 0.173686 0.112292
			-0.905763 0.199697 -0.373786
			-0.545843 0.540418 -0.640316
			0.281382 0.242130 -0.928545
			0.907359 0.239849 -0.345211
			0.944740 0.134555 0.298934
			0.745580 0.156127 0.647869
			-0.105411 0.539747 0.835202
			-0.919373 0.372638 0.126069
			-0.931693 0.360711 0.042861
			-0.391963 0.794153 -0.464419
			0.196288 0.408202 -0.891539
			-0.644890 0.742072 0.182880
			0.474812 0.198857 -0.857327
			0.856457 0.175349 -0.485526
			0.967258 0.098965 0.233706
			0.967803 0.136491 0.211488
			0.784523 0.297415 0.544121
			0.676862 0.419877 0.604618
			0.089886 0.693490 0.714838
			-0.854551 0.518892 0.022191
			-0.797074 0.603878 -0.002046
			-0.767642 0.637085 0.069619
			-0.341743 0.688164 -0.640032
			-0.533233 0.810528 0.242293
			0.108739 0.345463 -0.932111
			0.379338 0.040160 -0.924386
			-0.672505 0.603285 0.428701
			0.472007 -0.051687 -0.880078
			0.930985 -0.137545 -0.338155
			0.901693 -0.322741 0.287732
			0.958730 -0.280670 -0.045385
			0.992492 0.060748 0.106151
			0.788089 0.185502 0.586945
			0.688021 0.224889 0.689965
			0.657299 0.011395 0.753544
			0.299955 0.147170 0.942532
			-0.299983 0.696980 0.651329
			-0.615044 0.779822 0.116613
			-0.570150 0.802091 -0.177708
			-0.872519 0.488057 -0.022601
			-0.640442 0.527057 -0.558609
			-0.301726 0.132901 -0.944086
			-0.772202 0.631265 -0.072179
			-0.611644 0.202639 0.764741
			-0.749255 0.440556 0.494497
			-0.001408 -0.210649 -0.977560
			0.280496 -0.275940 -0.919336
			-0.966459 -0.233465 0.107010
			0.316193 -0.217120 -0.923515
			0.449720 -0.184157 -0.873978
			0.830405 -0.532809 -0.162916
			0.717573 -0.624641 0.308078
			0.737357 -0.660640 -0.140921
			0.773333 -0.383402 -0.504934
			0.952156 -0.208637 0.223314
			0.749488 -0.028527 0.661404
			0.724683 0.025582 0.688608
			0.565928 -0.206803 0.798096
			0.193913 -0.124214 0.973123
			-0.338346 0.194416 0.920720
			-0.494164 0.746288 0.445934
			-0.257739 0.963816 0.068034
			-0.270284 0.871868 -0.408404
			-0.588741 0.394715 -0.705397
			-0.629353 0.047702 -0.775655
			-0.967628 0.218788 -0.125808
			-0.257902 -0.135881 -0.956569
			-0.939573 0.044326 0.339468
			-0.562021 -0.248063 0.789048
			-0.588716 -0.149172 0.794456
			-0.036631 -0.155848 -0.987101
			0.194538 -0.219007 -0.956133
			-0.516958 -0.069603 -0.853177
			-0.907174 -0.396528 -0.140713
			0.278496 -0.242773 -0.929248
			0.450710 -0.673850 -0.585480
			0.477104 -0.863571 0.163145
			0.348978 -0.908773 0.228790
			0.330580 -0.836201 -0.437591
			0.674234 -0.700060 -0.235209
			0.715926 -0.104584 0.690300
			0.643246 -0.141916 0.752393
			0.482177 -0.274936 0.831815
			0.190853 -0.258192 0.947054
			-0.235163 -0.023060 0.971683
			-0.733272 0.163314 0.660031
			-0.619113 0.765931 -0.173345
			-0.452663 0.346810 -0.821474
			-0.826367 -0.313704 -0.467661
			-0.876808 -0.438283 0.197774
			-0.525122 -0.400668 -0.750807
			-0.663952 -0.595824 0.451841
			-0.401061 -0.534972 0.743609
			-0.106302 -0.650226 -0.752267
			0.196272 -0.674351 -0.711848
			-0.446394 -0.230179 -0.864726
			-0.588701 -0.231223 -0.774575
			-0.416147 -0.488929 -0.766661
			-0.560587 -0.771896 -0.299864
			-0.414180 -0.791064 0.450192
			0.166408 -0.971887 -0.166566
			0.157767 -0.969012 0.190070
			-0.037618 -0.971722 -0.233112
			-0.090985 -0.922977 0.373944
			0.089330 -0.838021 -0.538276
			0.283732 -0.891965 -0.351987
			0.602949 -0.662234 0.444858
			0.522563 -0.130603 0.842538
			0.393434 -0.285951 0.873751
			0.115160 -0.271719 0.955462
			-0.159234 -0.241779 0.957176
			-0.796513 -0.382196 0.468501
			-0.967809 0.080624 -0.238420
			-0.618990 -0.763817 0.182854
			-0.443712 -0.782099 0.437541
			-0.431407 -0.902028 -0.015299
			-0.192511 -0.826862 0.528430
			-0.096371 -0.994209 -0.047564
			-0.529191 -0.557240 -0.639875
			-0.852917 -0.465356 -0.236594
			-0.354179 -0.684735 -0.636942
			-0.260446 -0.694379 -0.670824
			-0.064977 -0.975482 0.210268
			0.144824 -0.986704 -0.073761
			-0.102307 -0.862297 -0.495960
			0.379227 -0.462902 0.801192
			0.001077 -0.452698 0.891663
			-0.470892 -0.569602 0.673657
			-0.715735 -0.698365 0.003044
			-0.267322 -0.919024 0.289715
			-0.513855 -0.803691 -0.300055
			-0.219296 -0.967776 -0.123769
			-0.044645 -0.900940 0.431640
			-0.395053 -0.899922 0.184592
		</DataArray>
	</PointData>
	<Points>
		<DataArray type="Float32" NumberOfComponents="3" format="ascii">
			-0.010098 0.016249 0.012408
			-0.008165 0.007692 0.018768
			-0.015949 0.013279 0.010858
			-0.007902 0.018877 0.009721
			-0.003450 0.016125 0.015898
			0.002647 0.015966 0.015592
			-0.019739 0.006291 0.010860
			-0.018369 -0.002121 0.014778
			-0.010980 -0.006548 0.019684
			-0.003494 -0.000887 0.023303
			0.002286 0.004164 0.021903
			0.001946 0.012429 0.018928
			-0.013912 0.016495 0.007704
			-0.019951 0.010363 0.006390
			-0.005227 0.021308 0.004487
			0.002457 0.019701 0.009643
			0.008452 0.010411 0.018381
			0.009217 0.016048 0.012724
			-0.022257 0.001715 0.008013
			-0.019041 -0.005448 0.012579
			-0.010614 -0.009522 0.018786
			-0.002696 -0.006751 0.022711
			0.003763 -0.003108 0.022825
			0.007545 0.001930 0.021788
			-0.012071 0.019192 0.002064
			-0.018336 0.013950 0.000723
			-0.022731 0.005730 0.001900
			-0.003006 0.022348 -0.000845
			0.002805 0.022200 0.001293
			0.008697 0.020082 0.004219
			0.014373 0.009689 0.014692
			0.015160 0.015206 0.007444
			-0.022519 -0.004399 0.006288
			-0.017537 -0.010546 0.012047
			-0.009055 -0.012411 0.018026
			-0.000524 -0.010553 0.021287
			0.007870 -0.005899 0.021183
			0.014733 0.001342 0.018040
			-0.009708 0.020270 -0.003222
			-0.016403 0.015534 -0.004945
			-0.022095 0.006679 -0.004378
			-0.023571 -0.002225 -0.000411
			-0.007669 0.019605 -0.009462
			-0.001603 0.021704 -0.006618
			0.004733 0.021757 -0.004599
			0.010820 0.019940 -0.002560
			0.017611 -0.000449 0.015960
			0.018586 0.009162 0.010472
			0.018549 0.013512 0.000255
			-0.020690 -0.010096 0.005470
			-0.014835 -0.014178 0.011430
			-0.006188 -0.016388 0.016033
			0.004308 -0.012908 0.019122
			0.011895 -0.008721 0.018498
			-0.013981 0.014896 -0.010917
			-0.020055 0.006621 -0.009931
			-0.022347 -0.003732 -0.006111
			-0.020324 -0.011757 0.000908
			-0.007012 0.016801 -0.014371
			-0.014587 0.011200 -0.014392
			0.000424 0.019490 -0.012171
			0.008370 0.018861 -0.010000
			0.015614 0.015084 -0.007974
			0.020675 -0.004367 0.010392
			0.022044 0.005696 0.003966
			0.020524 0.009620 -0.005960
			-0.014876 -0.016009 0.008490
			-0.005362 -0.018270 0.014166
			0.006442 -0.015782 0.016018
			0.015728 -0.010242 0.014780
			-0.019454 0.001321 -0.012914
			-0.020651 -0.007808 -0.007975
			-0.019088 -0.014437 0.002114
			-0.012063 -0.017899 0.009135
			0.002063 0.016828 -0.015964
			-0.005022 0.014765 -0.017589
			-0.011989 0.008939 -0.018001
			0.008656 0.015565 -0.015464
			0.013341 0.013495 -0.014073
			0.017605 0.008292 -0.012966
			0.022934 -0.004878 0.001943
			0.023442 0.001825 -0.002366
			0.021631 -0.000378 -0.009635
			-0.000973 -0.019318 0.013442
			0.010861 -0.017412 0.010694
			0.018564 -0.012535 0.007570
			-0.017261 0.000763 -0.016678
			-0.019128 -0.006854 -0.012223
			-0.016678 -0.014041 -0.003783
			-0.011101 -0.017599 0.004042
			-0.004368 0.010782 -0.020488
			0.003508 0.012226 -0.019456
			-0.010214 0.004045 -0.019801
			-0.012903 -0.003625 -0.018682
			0.010286 0.009989 -0.018895
			0.015910 0.005694 -0.016284
			0.018236 -0.001754 -0.015052
			0.017855 -0.015554 0.003072
			0.021963 -0.007359 -0.004625
			0.018903 -0.009257 -0.010194
			-0.003669 -0.019788 0.007898
			0.002684 -0.020501 0.008895
			0.011614 -0.018739 0.006896
			-0.014503 -0.012253 -0.010766
			-0.010346 -0.016572 -0.003484
			-0.004343 -0.019128 0.001000
			-0.003467 -0.001319 -0.020862
			0.003336 0.003803 -0.018946
			-0.008719 -0.009408 -0.019996
			-0.009824 -0.016722 -0.013758
			0.009534 0.001468 -0.018718
			0.015989 -0.002059 -0.017853
			0.016578 -0.015612 -0.005014
			0.017235 -0.009303 -0.014341
			0.002416 -0.019542 0.002451
			0.010239 -0.018849 0.000673
			-0.006420 -0.020660 -0.008181
			0.002249 -0.021786 -0.004995
			0.001437 -0.007323 -0.028113
			-0.004741 -0.015170 -0.026625
			0.009152 -0.003081 -0.026521
			-0.006926 -0.021184 -0.020682
			-0.006684 -0.027233 -0.016702
			0.016328 -0.006393 -0.025340
			0.018532 -0.014049 -0.023645
			0.015328 -0.015123 -0.009920
			0.016872 -0.021305 -0.021754
			0.011086 -0.019496 -0.006081
			-0.002986 -0.030086 -0.012876
			0.004619 -0.030820 -0.012311
			0.010409 -0.003809 -0.033188
			0.003145 -0.008844 -0.032681
			-0.002801 -0.017052 -0.030658
			-0.005821 -0.025046 -0.027519
			0.017092 -0.005939 -0.033187
			-0.007780 -0.033184 -0.020479
			-0.006744 -0.035639 -0.016886
			0.021669 -0.010334 -0.031718
			0.023518 -0.016472 -0.030764
			0.013293 -0.028023 -0.017944
			0.016203 -0.032025 -0.026241
			0.019858 -0.022463 -0.029785
			0.003645 -0.038989 -0.015780
			0.011693 -0.037946 -0.018785
			0.012899 -0.002509 -0.039273
			0.018790 -0.003920 -0.038569
			0.004386 -0.007025 -0.040228
			0.002241 -0.015071 -0.040922
			-0.002434 -0.023602 -0.036971
			-0.007947 -0.033027 -0.030130
			0.023476 -0.007522 -0.038465
			-0.009070 -0.040066 -0.024329
			-0.009579 -0.044448 -0.019052
			0.024690 -0.012586 -0.038868
			0.018473 -0.028440 -0.034353
			0.021902 -0.019408 -0.038087
			0.011006 -0.045394 -0.020372
			0.015601 -0.037534 -0.028178
			0.000007 -0.046123 -0.018367
			0.012369 -0.000586 -0.045132
			0.019582 -0.000865 -0.046031
			0.023409 -0.007116 -0.045738
			-0.003350 -0.001667 -0.041816
			-0.003149 -0.010885 -0.046032
			-0.005146 -0.020288 -0.045207
			-0.009560 -0.027359 -0.040511
			-0.010188 -0.035113 -0.036315
			0.023162 -0.016586 -0.045381
			-0.011262 -0.043109 -0.029162
			-0.012253 -0.047499 -0.024251
			-0.013357 -0.050377 -0.017737
			0.018445 -0.033175 -0.040356
			0.020037 -0.025991 -0.043694
			0.015753 -0.047537 -0.029088
			0.016825 -0.040207 -0.034638
			-0.006363 -0.052402 -0.020241
			0.005828 -0.053581 -0.020457
			0.013362 -0.051286 -0.023014
			0.014543 0.000384 -0.049192
			0.022169 -0.008912 -0.050015
			0.022049 -0.019029 -0.048772
			-0.002315 0.001529 -0.043729
			-0.011044 -0.002198 -0.042558
			-0.011903 -0.016396 -0.046161
			-0.013903 -0.027193 -0.043796
			-0.013679 -0.037520 -0.041362
			-0.014812 -0.045095 -0.033736
			0.018030 -0.036531 -0.045798
			0.021110 -0.028868 -0.049245
			-0.019485 -0.050149 -0.024861
			-0.019077 -0.053521 -0.018696
			-0.013534 -0.055760 -0.017127
			0.015725 -0.053838 -0.027979
			0.016837 -0.049910 -0.035044
			0.017528 -0.043344 -0.041267
			0.012873 -0.056632 -0.022471
			-0.007947 -0.056972 -0.021364
			0.000163 -0.058067 -0.021910
			0.006174 -0.058574 -0.020969
			0.013061 -0.001490 -0.054083
			-0.001689 0.001131 -0.050477
			0.018149 -0.010699 -0.055339
			0.019775 -0.019954 -0.055864
			-0.012202 -0.001061 -0.047700
			-0.014262 -0.017302 -0.049573
			-0.015535 -0.026708 -0.050089
			-0.014912 -0.036133 -0.049279
			-0.012011 -0.047147 -0.040827
			-0.019922 -0.053610 -0.028532
			0.016524 -0.037972 -0.052005
			0.020394 -0.030100 -0.055344
			-0.020133 -0.056835 -0.021030
			-0.014252 -0.059496 -0.018593
			-0.006837 -0.061094 -0.023497
			0.017025 -0.059920 -0.029499
			0.017806 -0.054441 -0.038968
			0.015868 -0.048723 -0.046851
			0.014969 -0.062742 -0.023701
			0.000596 -0.063738 -0.022526
			0.008505 -0.064376 -0.020908
			0.011018 -0.005983 -0.057271
			-0.003571 -0.003633 -0.057570
			-0.010709 -0.007215 -0.053870
			0.017256 -0.018084 -0.061133
			-0.011420 -0.015310 -0.055435
			-0.010947 -0.026177 -0.056839
			-0.009643 -0.034851 -0.055589
			-0.009357 -0.051667 -0.048483
			-0.011092 -0.058757 -0.036561
			-0.006745 -0.061844 -0.042741
			-0.018930 -0.060415 -0.028982
			0.012969 -0.039424 -0.055681
			0.018789 -0.029380 -0.060100
			-0.018105 -0.062049 -0.021968
			-0.006848 -0.066033 -0.026077
			0.018927 -0.067201 -0.032801
			0.015372 -0.069216 -0.023493
			0.017338 -0.065462 -0.041958
			0.013209 -0.047836 -0.052749
			0.015578 -0.064307 -0.047785
			0.007108 -0.070301 -0.021317
			-0.000855 -0.068743 -0.023933
			0.010869 -0.018831 -0.063174
			0.001162 -0.017200 -0.063559
			-0.005125 -0.019199 -0.060936
			0.011520 -0.032225 -0.062034
			-0.003980 -0.028578 -0.061511
			-0.003787 -0.063076 -0.049651
			-0.003918 -0.054934 -0.053281
			-0.003947 -0.041693 -0.057398
			-0.003032 -0.073187 -0.042309
			-0.009964 -0.066002 -0.032562
			0.006317 -0.042835 -0.057202
			0.021363 -0.083414 -0.029642
			0.018254 -0.083414 -0.022897
			0.010583 -0.084573 -0.020800
			0.010757 -0.065224 -0.051933
			0.006196 -0.053013 -0.054394
			0.018085 -0.083305 -0.042157
			0.002719 -0.085186 -0.025180
			0.000142 -0.076417 -0.026408
			0.003934 -0.031288 -0.063135
			0.002561 -0.064257 -0.052339
			-0.000009 -0.088350 -0.034701
			0.005140 -0.086157 -0.048716
			0.025012 -0.114743 -0.035671
			0.023734 -0.107347 -0.023348
			0.014216 -0.113007 -0.017195
			0.012501 -0.085334 -0.049943
			0.015892 -0.115449 -0.046195
			0.004612 -0.114730 -0.028687
			0.009011 -0.116932 -0.045238
			0.029112 -0.145764 -0.034529
			0.030293 -0.143353 -0.022076
			0.018128 -0.143528 -0.012755
			0.009947 -0.146576 -0.023208
			0.020968 -0.147796 -0.040434
			0.012580 -0.149026 -0.037385
			0.032674 -0.178401 -0.031458
			0.033698 -0.175554 -0.020016
			0.021954 -0.175162 -0.009960
			0.012884 -0.175151 -0.019817
			0.015251 -0.177528 -0.031535
			0.023429 -0.176914 -0.036746
			0.033590 -0.206374 -0.029044
			0.033616 -0.204443 -0.014333
			0.020879 -0.204587 -0.008849
			0.014413 -0.206800 -0.016841
			0.016825 -0.208076 -0.028299
			0.024544 -0.207960 -0.033473
			0.034571 -0.241751 -0.025270
			0.034682 -0.239962 -0.012040
			0.023097 -0.238952 -0.005132
			0.014894 -0.239368 -0.012479
			0.016637 -0.242416 -0.024276
			0.025600 -0.242579 -0.029811
			0.034616 -0.274641 -0.020898
			0.035116 -0.273026 -0.009668
			0.023575 -0.270831 -0.001731
			0.013986 -0.272479 -0.009402
			0.016227 -0.275061 -0.022449
			0.024882 -0.276413 -0.026266
			0.023510 -0.307083 -0.023824
			0.030736 -0.306786 -0.020844
			0.033137 -0.305174 -0.005847
			0.024991 -0.303786 0.002094
			0.016056 -0.303605 -0.001990
			0.011514 -0.304867 -0.011532
			0.015249 -0.306907 -0.021809
			0.020173 -0.340184 -0.022473
			0.030566 -0.340585 -0.018599
			0.031898 -0.341299 -0.004241
			0.022386 -0.338525 0.006632
			0.013242 -0.337084 0.002812
			0.009792 -0.337793 -0.007827
			0.010782 -0.339171 -0.019492
			0.016645 -0.367059 -0.023231
			0.030143 -0.369993 -0.016223
			0.027993 -0.368313 -0.000007
			0.022297 -0.365258 0.010051
			0.011347 -0.362424 0.010804
			0.007006 -0.367552 -0.006081
			0.007055 -0.366642 -0.020440
			0.002549 -0.379953 -0.023469
			0.015548 -0.381437 -0.024952
			0.029338 -0.386524 -0.019061
			0.027235 -0.384931 0.002122
			0.018557 -0.378024 0.014928
			0.008241 -0.375358 0.018465
			0.005113 -0.377939 0.009160
			0.004733 -0.380700 -0.003459
			-0.002758 -0.386908 -0.029478
			0.012008 -0.394172 -0.031244
			-0.001464 -0.386950 -0.015262
			0.022637 -0.397334 -0.027722
			0.034435 -0.397236 -0.019378
			0.031242 -0.395803 -0.006861
			0.028689 -0.395923 0.003304
			0.023777 -0.391159 0.014382
			0.016875 -0.388099 0.021497
			0.001908 -0.387986 0.033057
			0.006938 -0.382211 0.023549
			0.001084 -0.386063 0.012998
			0.001401 -0.387863 -0.000719
			-0.009412 -0.391566 -0.030542
			-0.010857 -0.390087 -0.015883
			0.002543 -0.398518 -0.036603
			0.010275 -0.402182 -0.034148
			-0.008247 -0.392127 -0.010369
			0.020985 -0.404484 -0.028715
			0.034348 -0.405952 -0.019942
			0.030829 -0.405345 -0.007572
			0.027683 -0.406431 0.001240
			0.029979 -0.405352 0.009026
			0.022431 -0.399990 0.018909
			0.014860 -0.394771 0.028050
			0.013187 -0.402297 0.030592
			0.006909 -0.397918 0.036818
			-0.002047 -0.394027 0.036859
			-0.005044 -0.391301 0.025071
			-0.005257 -0.392524 0.015608
			-0.004409 -0.394464 0.001003
			-0.017047 -0.397000 -0.029561
			-0.009806 -0.402755 -0.036533
			-0.018619 -0.395546 -0.024054
			-0.012902 -0.400649 -0.007840
			-0.018166 -0.397443 -0.013966
			-0.002247 -0.406224 -0.037869
			0.007477 -0.408443 -0.034389
			-0.004651 -0.400066 0.000623
			0.016684 -0.411899 -0.029476
			0.023626 -0.413354 -0.027179
			0.029929 -0.414204 -0.021684
			0.027901 -0.413645 -0.009902
			0.023071 -0.412977 0.000521
			0.026998 -0.413810 0.006848
			0.030422 -0.414385 0.011126
			0.026517 -0.410568 0.017148
			0.021053 -0.407738 0.021991
			0.011055 -0.409421 0.030946
			0.002095 -0.402633 0.037878
			-0.012035 -0.397554 0.034683
			-0.019752 -0.394122 0.025951
			-0.007961 -0.393543 0.027297
			-0.013724 -0.392955 0.017354
			-0.011214 -0.398362 0.011654
			-0.021667 -0.406220 -0.031774
			-0.023233 -0.404414 -0.025408
			-0.013192 -0.410292 -0.032012
			-0.021937 -0.405472 -0.015985
			-0.004848 -0.408388 -0.007157
			-0.018171 -0.408765 -0.010474
			-0.007143 -0.413578 -0.033386
			0.002385 -0.416642 -0.032487
			-0.003904 -0.408863 0.008559
			0.001610 -0.410554 0.001291
			0.015694 -0.417720 -0.028432
			0.021822 -0.421304 -0.025385
			0.021066 -0.421241 -0.014151
			0.017056 -0.417887 -0.004250
			0.018192 -0.418868 0.004269
			0.026140 -0.421107 0.012054
			0.024165 -0.417231 0.019298
			0.018027 -0.413299 0.023277
			0.008755 -0.414317 0.031085
			-0.001818 -0.411863 0.035750
			-0.012014 -0.409211 0.035471
			-0.024872 -0.408518 0.031733
			-0.021355 -0.395822 0.018843
			-0.019904 -0.403336 0.011341
			-0.022112 -0.412954 -0.029915
			-0.023054 -0.410552 -0.021589
			-0.016644 -0.417224 -0.033312
			-0.016714 -0.415397 -0.013953
			-0.007447 -0.416280 -0.008604
			-0.008595 -0.422335 -0.033342
			0.004626 -0.423059 -0.030416
			-0.016280 -0.415554 0.012857
			-0.021394 -0.409831 0.012595
			-0.007482 -0.422000 0.012966
			0.004814 -0.416357 0.000707
			0.005079 -0.417706 -0.006067
			0.012371 -0.423568 -0.025913
			0.012678 -0.424598 -0.017887
			0.010727 -0.418415 0.000046
			0.010457 -0.421177 -0.009397
			0.011502 -0.421603 0.005223
			0.016404 -0.425625 0.012939
			0.018849 -0.425175 0.022348
			0.013585 -0.418886 0.025925
			0.005858 -0.420808 0.029542
			-0.000766 -0.417849 0.033901
			-0.011759 -0.415455 0.034906
			-0.022143 -0.414476 0.032164
			-0.025893 -0.403513 0.018887
			-0.015874 -0.419300 -0.019967
			-0.011228 -0.418955 -0.014018
			-0.012933 -0.421751 -0.025787
			-0.000621 -0.420783 -0.011583
			-0.002251 -0.424534 -0.024078
			-0.017604 -0.420793 0.016999
			-0.024455 -0.415806 0.021306
			-0.006767 -0.426428 0.015240
			0.003603 -0.421652 0.007106
			0.004512 -0.424559 -0.017672
			0.005914 -0.430363 0.020842
			0.001537 -0.429172 0.015197
			0.008450 -0.428067 0.027828
			-0.008183 -0.425121 0.033348
			-0.017474 -0.422695 0.030217
			-0.019260 -0.422181 0.022957
			-0.006181 -0.422840 -0.017965
			-0.012184 -0.426908 0.020101
			-0.004795 -0.429494 0.020105
			-0.002260 -0.428210 0.030947
			-0.011607 -0.427177 0.026386
		</DataArray>
	</Points>
			<Polys>
				<DataArray type="Int32" Name="connectivity" format="ascii">
					2 1 0 
					0 3 2 
					0 1 4 
					4 5 0 
					5 3 0 
					6 1 2 
					7 1 6 
					8 1 7 
					9 1 8 
					10 1 9 
					11 1 10 
					4 1 11 
					3 12 2 
					12 13 2 
					2 13 6 
					3 14 12 
					5 15 3 
					15 14 3 
					11 16 4 
					16 5 4 
					16 17 5 
					17 15 5 
					13 18 6 
					6 18 7 
					18 19 7 
					7 19 8 
					19 20 8 
					8 20 9 
					20 21 9 
					9 21 10 
					21 22 10 
					22 23 10 
					10 23 11 
					23 16 11 
					14 24 12 
					12 24 13 